Si    ONCVPSP-4.0.1  r_core=   2.27252   3.58059
     14.0000      4.0000      191023    zatom,zion,pspd
     8       2   1     4   600     0    pspcod,pspxc,lmax,lloc,mmax,r2well
  5.99000000  0.00000000  0.00000000    rchrg fchrg qchrg
     2     2     0     0     0    nproj
     1     1           extension_switch
   0                         5.1992453406594E+00  4.5206491848134E-01
     1  0.0000000000000E+00  3.8978514860233E-11 -1.7407244395917E-10
     2  1.0000000000000E-02  2.4502496983128E-02  5.8921333763900E-03
     3  2.0000000000000E-02  4.9027403552261E-02  1.1647074114995E-02
     4  3.0000000000000E-02  7.3596882919983E-02  1.7128687959206E-02
     5  4.0000000000000E-02  9.8232607144734E-02  2.2202950422226E-02
     6  5.0000000000000E-02  1.2295551552562E-01  2.6738984234711E-02
     7  6.0000000000000E-02  1.4778557773582E-01  3.0610075991032E-02
     8  7.0000000000000E-02  1.7274156322840E-01  3.3694665265036E-02
     9  8.0000000000000E-02  1.9784081840911E-01  3.5877299640259E-02
    10  9.0000000000000E-02  2.2309905302281E-01  3.7049549314787E-02
    11  1.0000000000000E-01  2.4853013714276E-01  3.7110875196900E-02
    12  1.1000000000000E-01  2.7414591008600E-01  3.5969444701912E-02
    13  1.2000000000000E-01  2.9995600250411E-01  3.3542889792201E-02
    14  1.3000000000000E-01  3.2596767281639E-01  2.9759002168665E-02
    15  1.4000000000000E-01  3.5218565906327E-01  2.4556360921242E-02
    16  1.5000000000000E-01  3.7861204716163E-01  1.7884888375591E-02
    17  1.6000000000000E-01  4.0524615644140E-01  9.7063303305422E-03
    18  1.7000000000000E-01  4.3208444323477E-01 -5.3426367336747E-06
    19  1.8000000000000E-01  4.5912042317672E-01 -1.1263615616316E-02
    20  1.9000000000000E-01  4.8634461275842E-01 -2.4069193856850E-02
    21  2.0000000000000E-01  5.1374449055425E-01 -3.8409853058164E-02
    22  2.1000000000000E-01  5.4130447842037E-01 -5.4260376669238E-02
    23  2.2000000000000E-01  5.6900594283691E-01 -7.1582580834384E-02
    24  2.3000000000000E-01  5.9682721643962E-01 -9.0325427064417E-02
    25  2.4000000000000E-01  6.2474363965962E-01 -1.1042522214114E-01
    26  2.5000000000000E-01  6.5272762226353E-01 -1.3180590419672E-01
    27  2.6000000000000E-01  6.8074872446054E-01 -1.5437941334791E-01
    28  2.7000000000000E-01  7.0877375711974E-01 -1.7804614471251E-01
    29  2.8000000000000E-01  7.3676690052011E-01 -2.0269548109475E-01
    30  2.9000000000000E-01  7.6468984093858E-01 -2.2820640210194E-01
    31  3.0000000000000E-01  7.9250192426864E-01 -2.5444816594970E-01
    32  3.1000000000000E-01  8.2016032575386E-01 -2.8128105972969E-01
    33  3.2000000000000E-01  8.4762023481914E-01 -3.0855721345824E-01
    34  3.3000000000000E-01  8.7483505388606E-01 -3.3612147279541E-01
    35  3.4000000000000E-01  9.0175660997071E-01 -3.6381232492848E-01
    36  3.5000000000000E-01  9.2833537778085E-01 -3.9146287175293E-01
    37  3.6000000000000E-01  9.5452071295675E-01 -4.1890184415902E-01
    38  3.7000000000000E-01  9.8026109403575E-01 -4.4595465094796E-01
    39  3.8000000000000E-01  1.0055043716655E+00 -4.7244445565795E-01
    40  3.9000000000000E-01  1.0301980235456E+00 -4.9819327438102E-01
    41  4.0000000000000E-01  1.0542894135416E+00 -5.2302308749582E-01
    42  4.1000000000000E-01  1.0777260533893E+00 -5.4675695813324E-01
    43  4.2000000000000E-01  1.1004558653933E+00 -5.6922015012984E-01
    44  4.3000000000000E-01  1.1224274445170E+00 -5.9024123820955E-01
    45  4.4000000000000E-01  1.1435903182696E+00 -6.0965320316900E-01
    46  4.5000000000000E-01  1.1638952028084E+00 -6.2729450492309E-01
    47  4.6000000000000E-01  1.1832942537045E+00 -6.4301012639822E-01
    48  4.7000000000000E-01  1.2017413098550E+00 -6.5665258143731E-01
    49  4.8000000000000E-01  1.2191921290716E+00 -6.6808288010406E-01
    50  4.9000000000000E-01  1.2356046139321E+00 -6.7717144504268E-01
    51  5.0000000000000E-01  1.2509390265487E+00 -6.8379897286036E-01
    52  5.1000000000000E-01  1.2651581909777E+00 -6.8785723485297E-01
    53  5.2000000000000E-01  1.2782276820833E+00 -6.8924981178710E-01
    54  5.3000000000000E-01  1.2901159997555E+00 -6.8789275787938E-01
    55  5.4000000000000E-01  1.3007947274806E+00 -6.8371518957762E-01
    56  5.5000000000000E-01  1.3102386743700E+00 -6.7665979524145E-01
    57  5.6000000000000E-01  1.3184259998595E+00 -6.6668326234088E-01
    58  5.7000000000000E-01  1.3253383204108E+00 -6.5375661933649E-01
    59  5.8000000000000E-01  1.3309607976622E+00 -6.3786548997030E-01
    60  5.9000000000000E-01  1.3352822076037E+00 -6.1901025827770E-01
    61  6.0000000000000E-01  1.3382949904721E+00 -5.9720614322513E-01
    62  6.1000000000000E-01  1.3399952811925E+00 -5.7248318248080E-01
    63  6.2000000000000E-01  1.3403829203182E+00 -5.4488612543144E-01
    64  6.3000000000000E-01  1.3394614455504E+00 -5.1447423616491E-01
    65  6.4000000000000E-01  1.3372380640438E+00 -4.8132100773980E-01
    66  6.5000000000000E-01  1.3337236058291E+00 -4.4551378965559E-01
    67  6.6000000000000E-01  1.3289324588063E+00 -4.0715333101758E-01
    68  6.7000000000000E-01  1.3228824858773E+00 -3.6635324245173E-01
    69  6.8000000000000E-01  1.3155949249015E+00 -3.2323938036744E-01
    70  6.9000000000000E-01  1.3070942722651E+00 -2.7794915768053E-01
    71  7.0000000000000E-01  1.2974081509539E+00 -2.3063078559671E-01
    72  7.1000000000000E-01  1.2865671641162E+00 -1.8144245150950E-01
    73  7.2000000000000E-01  1.2746047351866E+00 -1.3055143848512E-01
    74  7.3000000000000E-01  1.2615569357193E+00 -7.8133192186696E-02
    75  7.4000000000000E-01  1.2474623021501E+00 -2.4370341427336E-02
    76  7.5000000000000E-01  1.2323616427649E+00  3.0548321164109E-02
    77  7.6000000000000E-01  1.2162978362014E+00  8.6428891634076E-02
    78  7.7000000000000E-01  1.1993156228533E+00  1.4307343342175E-01
    79  7.8000000000000E-01  1.1814613905716E+00  2.0028107522374E-01
    80  7.9000000000000E-01  1.1627829560806E+00  2.5784912082631E-01
    81  8.0000000000000E-01  1.1433293435311E+00  3.1557416367907E-01
    82  8.1000000000000E-01  1.1231505616135E+00  3.7325319898578E-01
    83  8.2000000000000E-01  1.1022973806379E+00  4.3068472614436E-01
    84  8.3000000000000E-01  1.0808211109675E+00  4.8766983447175E-01
    85  8.4000000000000E-01  1.0587733841570E+00  5.4401326530598E-01
    86  8.5000000000000E-01  1.0362059381046E+00  5.9952444378015E-01
    87  8.6000000000000E-01  1.0131704074744E+00  6.5401847381368E-01
    88  8.7000000000000E-01  9.8971812058339E-01  7.0731709015991E-01
    89  8.8000000000000E-01  9.6589990388069E-01  7.5924956168711E-01
    90  8.9000000000000E-01  9.4176589506602E-01  8.0965354044348E-01
    91  9.0000000000000E-01  9.1736536581324E-01  8.5837585147046E-01
    92  9.1000000000000E-01  8.9274655497387E-01  9.0527321877111E-01
    93  9.2000000000000E-01  8.6795651304001E-01  9.5021292331463E-01
    94  9.3000000000000E-01  8.4304095854704E-01  9.9307338945526E-01
    95  9.4000000000000E-01  8.1804414699285E-01  1.0337446966629E+00
    96  9.5000000000000E-01  7.9300875274462E-01  1.0721290139978E+00
    97  9.6000000000000E-01  7.6797576429726E-01  1.1081409553096E+00
    98  9.7000000000000E-01  7.4298439313878E-01  1.1417078536936E+00
    99  9.8000000000000E-01  7.1807199637090E-01  1.1727699542988E+00
   100  9.9000000000000E-01  6.9327401312603E-01  1.2012805251335E+00
   101  1.0000000000000E+00  6.6862391471801E-01  1.2272058860668E+00
   102  1.0100000000000E+00  6.4415316836231E-01  1.2505253567642E+00
   103  1.0200000000000E+00  6.1989121420475E-01  1.2712311248147E+00
   104  1.0300000000000E+00  5.9586545530516E-01  1.2893280358167E+00
   105  1.0400000000000E+00  5.7210126013599E-01  1.3048333076661E+00
   106  1.0500000000000E+00  5.4862197707575E-01  1.3177761717458E+00
   107  1.0600000000000E+00  5.2544896030438E-01  1.3281974441360E+00
   108  1.0700000000000E+00  5.0260160644207E-01  1.3361490303544E+00
   109  1.0800000000000E+00  4.8009740121663E-01  1.3416933674840E+00
   110  1.0900000000000E+00  4.5795197539628E-01  1.3449028078549E+00
   111  1.1000000000000E+00  4.3617916918597E-01  1.3458589487183E+00
   112  1.1100000000000E+00  4.1479110425606E-01  1.3446519125676E+00
   113  1.1200000000000E+00  3.9379826255261E-01  1.3413795829436E+00
   114  1.1300000000000E+00  3.7320957102907E-01  1.3361468006854E+00
   115  1.1400000000000E+00  3.5303249143905E-01  1.3290645256746E+00
   116  1.1500000000000E+00  3.3327311434025E-01  1.3202489691493E+00
   117  1.1600000000000E+00  3.1393625647943E-01  1.3098207016513E+00
   118  1.1700000000000E+00  2.9502556075737E-01  1.2979037416065E+00
   119  1.1800000000000E+00  2.7654359801135E-01  1.2846246294282E+00
   120  1.1900000000000E+00  2.5849196989979E-01  1.2701114918791E+00
   121  1.2000000000000E+00  2.4087141222902E-01  1.2544931012275E+00
   122  1.2100000000000E+00  2.2368189812524E-01  1.2378979334933E+00
   123  1.2200000000000E+00  2.0692274052452E-01  1.2204532298029E+00
   124  1.2300000000000E+00  1.9059269353043E-01  1.2022840645520E+00
   125  1.2400000000000E+00  1.7469005227030E-01  1.1835124237307E+00
   126  1.2500000000000E+00  1.5921275096789E-01  1.1642562963882E+00
   127  1.2600000000000E+00  1.4415845904064E-01  1.1446287818060E+00
   128  1.2700000000000E+00  1.2952467512297E-01  1.1247372145289E+00
   129  1.2800000000000E+00  1.1530881901234E-01  1.1046823089558E+00
   130  1.2900000000000E+00  1.0150832163136E-01  1.0845573247364E+00
   131  1.3000000000000E+00  8.8120713195775E-02  1.0644472537529E+00
   132  1.3100000000000E+00  7.5143709871627E-02  1.0444280289344E+00
   133  1.3200000000000E+00  6.2575299406278E-02  1.0245657578827E+00
   134  1.3300000000000E+00  5.0413825425241E-02  1.0049159584937E+00
   135  1.3400000000000E+00  3.8658094480980E-02  9.8552359284427E-01
   136  1.3500000000000E+00  2.7307513960998E-02  9.6642548405441E-01
   137  1.3600000000000E+00  1.6362117084617E-02  9.4765173960205E-01
   138  1.3700000000000E+00  5.8225155518078E-03  9.2922588785663E-01
   139  1.3800000000000E+00 -4.3101565150816E-03  9.1116507937489E-01
   140  1.3900000000000E+00 -1.4034307718082E-02  8.9348032507178E-01
   141  1.4000000000000E+00 -2.3347962149173E-02  8.7617677932161E-01
   142  1.4100000000000E+00 -3.2248838836262E-02  8.5925406359894E-01
   143  1.4200000000000E+00 -4.0734436846858E-02  8.4270662672530E-01
   144  1.4300000000000E+00 -4.8802124991741E-02  8.2652413761976E-01
   145  1.4400000000000E+00 -5.6449235046605E-02  8.1069190627906E-01
   146  1.4500000000000E+00 -6.3673157396175E-02  7.9519132857926E-01
   147  1.4600000000000E+00 -7.0471438001133E-02  7.8000035039186E-01
   148  1.4700000000000E+00 -7.6841875593844E-02  7.6509394644366E-01
   149  1.4800000000000E+00 -8.2782618024189E-02  7.5044460933360E-01
   150  1.4900000000000E+00 -8.8292256699933E-02  7.3602284410311E-01
   151  1.5000000000000E+00 -9.3369918100500E-02  7.2179766385486E-01
   152  1.5100000000000E+00 -9.8015351382481E-02  7.0773708194518E-01
   153  1.5200000000000E+00 -1.0222901114535E-01  6.9380859643114E-01
   154  1.5300000000000E+00 -1.0601213448178E-01  6.7997966259203E-01
   155  1.5400000000000E+00 -1.0936681150047E-01  6.6621814953434E-01
   156  1.5500000000000E+00 -1.1229604857878E-01  6.5249277710570E-01
   157  1.5600000000000E+00 -1.1480382367798E-01  6.3877352958878E-01
   158  1.5700000000000E+00 -1.1689513313404E-01  6.2503204291802E-01
   159  1.5800000000000E+00 -1.1857602942138E-01  6.1124196245756E-01
   160  1.5900000000000E+00 -1.1985364947565E-01  5.9737926869696E-01
   161  1.6000000000000E+00 -1.2073623325214E-01  5.8342256855556E-01
   162  1.6100000000000E+00 -1.2123313229003E-01  5.6935335033821E-01
   163  1.6200000000000E+00 -1.2135480814685E-01  5.5515620074771E-01
   164  1.6300000000000E+00 -1.2111282066277E-01  5.4081898273156E-01
   165  1.6400000000000E+00 -1.2051980610880E-01  5.2633297331845E-01
   166  1.6500000000000E+00 -1.1958944536663E-01  5.1169296097964E-01
   167  1.6600000000000E+00 -1.1833642237994E-01  4.9689730243012E-01
   168  1.6700000000000E+00 -1.1677637320563E-01  4.8194793915850E-01
   169  1.6800000000000E+00 -1.1492582607942E-01  4.6685037434216E-01
   170  1.6900000000000E+00 -1.1280213299225E-01  4.5161361116078E-01
   171  1.7000000000000E+00 -1.1042339335019E-01  4.3625005386374E-01
   172  1.7100000000000E+00 -1.0780837036264E-01  4.2077537327324E-01
   173  1.7200000000000E+00 -1.0497640086893E-01  4.0520833871183E-01
   174  1.7300000000000E+00 -1.0194729937233E-01  3.8957061862751E-01
   175  1.7400000000000E+00 -9.8741257102594E-02  3.7388655245019E-01
   176  1.7500000000000E+00 -9.5378736972721E-02  3.5818289644799E-01
   177  1.7600000000000E+00 -9.1880365332208E-02  3.4248854655722E-01
   178  1.7700000000000E+00 -8.8266821447935E-02  3.2683424133691E-01
   179  1.7800000000000E+00 -8.4558725664011E-02  3.1125224834360E-01
   180  1.7900000000000E+00 -8.0776527203877E-02  2.9577603733541E-01
   181  1.8000000000000E+00 -7.6940392581354E-02  2.8043994379530E-01
   182  1.8100000000000E+00 -7.3070095582018E-02  2.6527882630987E-01
   183  1.8200000000000E+00 -6.9184909762696E-02  2.5032772135480E-01
   184  1.8300000000000E+00 -6.5303504394868E-02  2.3562149901812E-01
   185  1.8400000000000E+00 -6.1443844747705E-02  2.2119452314151E-01
   186  1.8500000000000E+00 -5.7623097568287E-02  2.0708031927470E-01
   187  1.8600000000000E+00 -5.3857542571303E-02  1.9331125372451E-01
   188  1.8700000000000E+00 -5.0162490697865E-02  1.7991822683506E-01
   189  1.8800000000000E+00 -4.6552209843941E-02  1.6693038346368E-01
   190  1.8900000000000E+00 -4.3039858693624E-02  1.5437484341824E-01
   191  1.9000000000000E+00 -3.9637429221729E-02  1.4227645439932E-01
   192  1.9100000000000E+00 -3.6355698354638E-02  1.3065756974584E-01
   193  1.9200000000000E+00 -3.3204189198006E-02  1.1953785301741E-01
   194  1.9300000000000E+00 -3.0191142157122E-02  1.0893411116733E-01
   195  1.9400000000000E+00 -2.7323496189842E-02  9.8860157765683E-02
   196  1.9500000000000E+00 -2.4606880342356E-02  8.9326707420575E-02
   197  1.9600000000000E+00 -2.2045615630037E-02  8.0341302234685E-02
   198  1.9700000000000E+00 -1.9642727235021E-02  7.1908270811963E-02
   199  1.9800000000000E+00 -1.7399966902725E-02  6.4028720006523E-02
   200  1.9900000000000E+00 -1.5317845330562E-02  5.6700559281535E-02
   201  2.0000000000000E+00 -1.3395674254842E-02  4.9918557224044E-02
   202  2.0100000000000E+00 -1.1631617860741E-02  4.3674429462105E-02
   203  2.0200000000000E+00 -1.0022753054361E-02  3.7956956906219E-02
   204  2.0300000000000E+00 -8.5651380630093E-03  3.2752132961172E-02
   205  2.0400000000000E+00 -7.2538887561885E-03  2.8043338071997E-02
   206  2.0500000000000E+00 -6.0832620128516E-03  2.3811539707663E-02
   207  2.0600000000000E+00 -5.0467453994714E-03  2.0035515645842E-02
   208  2.0700000000000E+00 -4.1371523706014E-03  1.6692098211046E-02
   209  2.0800000000000E+00 -3.3467221522500E-03  1.3756436908681E-02
   210  2.0900000000000E+00 -2.6672234312331E-03  1.1202276741509E-02
   211  2.1000000000000E+00 -2.0900609393652E-03  9.0022493467749E-03
   212  2.1100000000000E+00 -1.6063839965717E-03  7.1281739769221E-03
   213  2.1200000000000E+00 -1.2071961272015E-03  5.5513660496920E-03
   214  2.1300000000000E+00 -8.8346414371088E-04  4.2429431036430E-03
   215  2.1400000000000E+00 -6.2622830958207E-04  3.1741517045440E-03
   216  2.1500000000000E+00 -4.2670796599899E-04  2.3166621687798E-03
   217  2.1600000000000E+00 -2.7639593383729E-04  1.6428001613500E-03
   218  2.1700000000000E+00 -1.6713911253488E-04  1.1254100636413E-03
   219  2.1800000000000E+00 -9.1311504661971E-05  7.3900012516449E-04
   220  2.1900000000000E+00 -4.1934583532247E-05  4.6053123349721E-04
   221  2.2000000000000E+00 -1.2638958244483E-05  2.6851822307114E-04
   222  2.2100000000000E+00  2.2372912060537E-06  1.4342448912848E-04
   223  2.2200000000000E+00  7.5758175142234E-06  6.7877275286224E-05
   224  2.2300000000000E+00  7.4129461022151E-06  2.6870533437982E-05
   225  2.2400000000000E+00  4.8817136184986E-06  7.9423776699000E-06
   226  2.2500000000000E+00  2.1732295462072E-06  1.3151307199785E-06
   227  2.2600000000000E+00  4.8849265777632E-07  1.8506633464184E-08
   228  2.2700000000000E+00  1.0127227402320E-08 -8.7212332906964E-10
   229  2.2800000000000E+00 -8.9184835429425E-09  2.4265802717328E-08
   230  2.2900000000000E+00  5.9153099278665E-09 -7.0631898435485E-09
   231  2.30 -0.  0.
   232  2.31 -0.  0.
   233  2.32  0. -0.
   234  2.33  0.  0.
   235  2.34  0.  0.
   236  2.35  0.  0.
   237  2.36  0.  0.
   238  2.37  0.  0.
   239  2.38  0.  0.
   240  2.39  0.  0.
   241  2.40  0.  0.
   242  2.41  0.  0.
   243  2.42  0.  0.
   244  2.43  0.  0.
   245  2.44  0.  0.
   246  2.45  0.  0.
   247  2.46  0.  0.
   248  2.47  0.  0.
   249  2.48  0.  0.
   250  2.49  0.  0.
   251  2.50  0.  0.
   252  2.51  0.  0.
   253  2.52  0.  0.
   254  2.53  0.  0.
   255  2.54  0.  0.
   256  2.55  0.  0.
   257  2.56  0.  0.
   258  2.57  0.  0.
   259  2.58  0.  0.
   260  2.59  0.  0.
   261  2.60  0.  0.
   262  2.61  0.  0.
   263  2.62  0.  0.
   264  2.63  0.  0.
   265  2.64  0.  0.
   266  2.65  0.  0.
   267  2.66  0.  0.
   268  2.67  0.  0.
   269  2.68  0.  0.
   270  2.69  0.  0.
   271  2.70  0.  0.
   272  2.71  0.  0.
   273  2.72  0.  0.
   274  2.73  0.  0.
   275  2.74  0.  0.
   276  2.75  0.  0.
   277  2.76  0.  0.
   278  2.77  0.  0.
   279  2.78  0.  0.
   280  2.79  0.  0.
   281  2.80  0.  0.
   282  2.81  0.  0.
   283  2.82  0.  0.
   284  2.83  0.  0.
   285  2.84  0.  0.
   286  2.85  0.  0.
   287  2.86  0.  0.
   288  2.87  0.  0.
   289  2.88  0.  0.
   290  2.89  0.  0.
   291  2.90  0.  0.
   292  2.91  0.  0.
   293  2.92  0.  0.
   294  2.93  0.  0.
   295  2.94  0.  0.
   296  2.95  0.  0.
   297  2.96  0.  0.
   298  2.97  0.  0.
   299  2.98  0.  0.
   300  2.99  0.  0.
   301  3.00  0.  0.
   302  3.01  0.  0.
   303  3.02  0.  0.
   304  3.03  0.  0.
   305  3.04  0.  0.
   306  3.05  0.  0.
   307  3.06  0.  0.
   308  3.07  0.  0.
   309  3.08  0.  0.
   310  3.09  0.  0.
   311  3.10  0.  0.
   312  3.11  0.  0.
   313  3.12  0.  0.
   314  3.13  0.  0.
   315  3.14  0.  0.
   316  3.15  0.  0.
   317  3.16  0.  0.
   318  3.17  0.  0.
   319  3.18  0.  0.
   320  3.19  0.  0.
   321  3.20  0.  0.
   322  3.21  0.  0.
   323  3.22  0.  0.
   324  3.23  0.  0.
   325  3.24  0.  0.
   326  3.25  0.  0.
   327  3.26  0.  0.
   328  3.27  0.  0.
   329  3.28  0.  0.
   330  3.29  0.  0.
   331  3.30  0.  0.
   332  3.31  0.  0.
   333  3.32  0.  0.
   334  3.33  0.  0.
   335  3.34  0.  0.
   336  3.35  0.  0.
   337  3.36  0.  0.
   338  3.37  0.  0.
   339  3.38  0.  0.
   340  3.39  0.  0.
   341  3.40  0.  0.
   342  3.41  0.  0.
   343  3.42  0.  0.
   344  3.43  0.  0.
   345  3.44  0.  0.
   346  3.45  0.  0.
   347  3.46  0.  0.
   348  3.47  0.  0.
   349  3.48  0.  0.
   350  3.49  0.  0.
   351  3.50  0.  0.
   352  3.51  0.  0.
   353  3.52  0.  0.
   354  3.53  0.  0.
   355  3.54  0.  0.
   356  3.55  0.  0.
   357  3.56  0.  0.
   358  3.57  0.  0.
   359  3.58  0.  0.
   360  3.59  0.  0.
   361  3.60  0.  0.
   362  3.61  0.  0.
   363  3.62  0.  0.
   364  3.63  0.  0.
   365  3.64  0.  0.
   366  3.65  0.  0.
   367  3.66  0.  0.
   368  3.67  0.  0.
   369  3.68  0.  0.
   370  3.69  0.  0.
   371  3.70  0.  0.
   372  3.71  0.  0.
   373  3.72  0.  0.
   374  3.73  0.  0.
   375  3.74  0.  0.
   376  3.75  0.  0.
   377  3.76  0.  0.
   378  3.77  0.  0.
   379  3.78  0.  0.
   380  3.79  0.  0.
   381  3.80  0.  0.
   382  3.81  0.  0.
   383  3.82  0.  0.
   384  3.83  0.  0.
   385  3.84  0.  0.
   386  3.85  0.  0.
   387  3.86  0.  0.
   388  3.87  0.  0.
   389  3.88  0.  0.
   390  3.89  0.  0.
   391  3.90  0.  0.
   392  3.91  0.  0.
   393  3.92  0.  0.
   394  3.93  0.  0.
   395  3.94  0.  0.
   396  3.95  0.  0.
   397  3.96  0.  0.
   398  3.97  0.  0.
   399  3.98  0.  0.
   400  3.99  0.  0.
   401  4.00  0.  0.
   402  4.01  0.  0.
   403  4.02  0.  0.
   404  4.03  0.  0.
   405  4.04  0.  0.
   406  4.05  0.  0.
   407  4.06  0.  0.
   408  4.07  0.  0.
   409  4.08  0.  0.
   410  4.09  0.  0.
   411  4.10  0.  0.
   412  4.11  0.  0.
   413  4.12  0.  0.
   414  4.13  0.  0.
   415  4.14  0.  0.
   416  4.15  0.  0.
   417  4.16  0.  0.
   418  4.17  0.  0.
   419  4.18  0.  0.
   420  4.19  0.  0.
   421  4.20  0.  0.
   422  4.21  0.  0.
   423  4.22  0.  0.
   424  4.23  0.  0.
   425  4.24  0.  0.
   426  4.25  0.  0.
   427  4.26  0.  0.
   428  4.27  0.  0.
   429  4.28  0.  0.
   430  4.29  0.  0.
   431  4.30  0.  0.
   432  4.31  0.  0.
   433  4.32  0.  0.
   434  4.33  0.  0.
   435  4.34  0.  0.
   436  4.35  0.  0.
   437  4.36  0.  0.
   438  4.37  0.  0.
   439  4.38  0.  0.
   440  4.39  0.  0.
   441  4.40  0.  0.
   442  4.41  0.  0.
   443  4.42  0.  0.
   444  4.43  0.  0.
   445  4.44  0.  0.
   446  4.45  0.  0.
   447  4.46  0.  0.
   448  4.47  0.  0.
   449  4.48  0.  0.
   450  4.49  0.  0.
   451  4.50  0.  0.
   452  4.51  0.  0.
   453  4.52  0.  0.
   454  4.53  0.  0.
   455  4.54  0.  0.
   456  4.55  0.  0.
   457  4.56  0.  0.
   458  4.57  0.  0.
   459  4.58  0.  0.
   460  4.59  0.  0.
   461  4.60  0.  0.
   462  4.61  0.  0.
   463  4.62  0.  0.
   464  4.63  0.  0.
   465  4.64  0.  0.
   466  4.65  0.  0.
   467  4.66  0.  0.
   468  4.67  0.  0.
   469  4.68  0.  0.
   470  4.69  0.  0.
   471  4.70  0.  0.
   472  4.71  0.  0.
   473  4.72  0.  0.
   474  4.73  0.  0.
   475  4.74  0.  0.
   476  4.75  0.  0.
   477  4.76  0.  0.
   478  4.77  0.  0.
   479  4.78  0.  0.
   480  4.79  0.  0.
   481  4.80  0.  0.
   482  4.81  0.  0.
   483  4.82  0.  0.
   484  4.83  0.  0.
   485  4.84  0.  0.
   486  4.85  0.  0.
   487  4.86  0.  0.
   488  4.87  0.  0.
   489  4.88  0.  0.
   490  4.89  0.  0.
   491  4.90  0.  0.
   492  4.91  0.  0.
   493  4.92  0.  0.
   494  4.93  0.  0.
   495  4.94  0.  0.
   496  4.95  0.  0.
   497  4.96  0.  0.
   498  4.97  0.  0.
   499  4.98  0.  0.
   500  4.99  0.  0.
   501  5.00  0.  0.
   502  5.01  0.  0.
   503  5.02  0.  0.
   504  5.03  0.  0.
   505  5.04  0.  0.
   506  5.05  0.  0.
   507  5.06  0.  0.
   508  5.07  0.  0.
   509  5.08  0.  0.
   510  5.09  0.  0.
   511  5.10  0.  0.
   512  5.11  0.  0.
   513  5.12  0.  0.
   514  5.13  0.  0.
   515  5.14  0.  0.
   516  5.15  0.  0.
   517  5.16  0.  0.
   518  5.17  0.  0.
   519  5.18  0.  0.
   520  5.19  0.  0.
   521  5.20  0.  0.
   522  5.21  0.  0.
   523  5.22  0.  0.
   524  5.23  0.  0.
   525  5.24  0.  0.
   526  5.25  0.  0.
   527  5.26  0.  0.
   528  5.27  0.  0.
   529  5.28  0.  0.
   530  5.29  0.  0.
   531  5.30  0.  0.
   532  5.31  0.  0.
   533  5.32  0.  0.
   534  5.33  0.  0.
   535  5.34  0.  0.
   536  5.35  0.  0.
   537  5.36  0.  0.
   538  5.37  0.  0.
   539  5.38  0.  0.
   540  5.39  0.  0.
   541  5.40  0.  0.
   542  5.41  0.  0.
   543  5.42  0.  0.
   544  5.43  0.  0.
   545  5.44  0.  0.
   546  5.45  0.  0.
   547  5.46  0.  0.
   548  5.47  0.  0.
   549  5.48  0.  0.
   550  5.49  0.  0.
   551  5.50  0.  0.
   552  5.51  0.  0.
   553  5.52  0.  0.
   554  5.53  0.  0.
   555  5.54  0.  0.
   556  5.55  0.  0.
   557  5.56  0.  0.
   558  5.57  0.  0.
   559  5.58  0.  0.
   560  5.59  0.  0.
   561  5.60  0.  0.
   562  5.61  0.  0.
   563  5.62  0.  0.
   564  5.63  0.  0.
   565  5.64  0.  0.
   566  5.65  0.  0.
   567  5.66  0.  0.
   568  5.67  0.  0.
   569  5.68  0.  0.
   570  5.69  0.  0.
   571  5.70  0.  0.
   572  5.71  0.  0.
   573  5.72  0.  0.
   574  5.73  0.  0.
   575  5.74  0.  0.
   576  5.75  0.  0.
   577  5.76  0.  0.
   578  5.77  0.  0.
   579  5.78  0.  0.
   580  5.79  0.  0.
   581  5.80  0.  0.
   582  5.81  0.  0.
   583  5.82  0.  0.
   584  5.83  0.  0.
   585  5.84  0.  0.
   586  5.85  0.  0.
   587  5.86  0.  0.
   588  5.87  0.  0.
   589  5.88  0.  0.
   590  5.89  0.  0.
   591  5.90  0.  0.
   592  5.91  0.  0.
   593  5.92  0.  0.
   594  5.93  0.  0.
   595  5.94  0.  0.
   596  5.95  0.  0.
   597  5.96  0.  0.
   598  5.97  0.  0.
   599  5.98  0.  0.
   600  5.99  0.  0.
   1                         2.2484306276966E+00  2.3119706119532E-01
     1  0.0000000000000E+00  9.4741714473656E-12 -2.0811782852626E-11
     2  1.0000000000000E-02  5.9525976362797E-04 -4.6258446953172E-04
     3  2.0000000000000E-02  2.3799116062647E-03 -1.8488466013255E-03
     4  3.0000000000000E-02  5.3505754698866E-03 -4.1543166514381E-03
     5  4.0000000000000E-02  9.5016255420249E-03 -7.3715586576039E-03
     6  5.0000000000000E-02  1.4825201665168E-02 -1.1490190818313E-02
     7  6.0000000000000E-02  2.1311225276072E-02 -1.6496913948877E-02
     8  7.0000000000000E-02  2.8947419841180E-02 -2.2375547940020E-02
     9  8.0000000000000E-02  3.7719335744912E-02 -2.9107076123730E-02
    10  9.0000000000000E-02  4.7610379578066E-02 -3.6669697430240E-02
    11  1.0000000000000E-01  5.8601847764353E-02 -4.5038886199712E-02
    12  1.1000000000000E-01  7.0672964453869E-02 -5.4187459492148E-02
    13  1.2000000000000E-01  8.3800923603362E-02 -6.4085651719416E-02
    14  1.3000000000000E-01  9.7960935154245E-02 -7.4701196403999E-02
    15  1.4000000000000E-01  1.1312627521076E-01 -8.5999414850421E-02
    16  1.5000000000000E-01  1.2926834011228E-01 -9.7943311497196E-02
    17  1.6000000000000E-01  1.4635670428541E-01 -1.1049367569946E-01
    18  1.7000000000000E-01  1.6435918175401E-01 -1.2360918967554E-01
    19  1.8000000000000E-01  1.8324189117701E-01 -1.3724654233442E-01
    20  1.9000000000000E-01  2.0296932427717E-01 -1.5136054868559E-01
    21  2.0000000000000E-01  2.2350441751637E-01 -1.6590427451764E-01
    22  2.1000000000000E-01  2.4480862686652E-01 -1.8082916601835E-01
    23  2.2000000000000E-01  2.6684200551866E-01 -1.9608518399521E-01
    24  2.3000000000000E-01  2.8956328436668E-01 -2.1162094234356E-01
    25  2.4000000000000E-01  3.1292995509655E-01 -2.2738385039715E-01
    26  2.5000000000000E-01  3.3689835570629E-01 -2.4332025878629E-01
    27  2.6000000000000E-01  3.6142375827705E-01 -2.5937560841788E-01
    28  2.7000000000000E-01  3.8646045881111E-01 -2.7549458218375E-01
    29  2.8000000000000E-01  4.1196186894816E-01 -2.9162125899521E-01
    30  2.9000000000000E-01  4.3788060936751E-01 -3.0769926973519E-01
    31  3.0000000000000E-01  4.6416860468041E-01 -3.2367195471303E-01
    32  3.1000000000000E-01  4.9077717961354E-01 -3.3948252220244E-01
    33  3.2000000000000E-01  5.1765715628206E-01 -3.5507420763883E-01
    34  3.3000000000000E-01  5.4475895234852E-01 -3.7039043304931E-01
    35  3.4000000000000E-01  5.7203267986198E-01 -3.8537496628683E-01
    36  3.5000000000000E-01  5.9942824457015E-01 -3.9997207963873E-01
    37  3.6000000000000E-01  6.2689544549662E-01 -4.1412670738010E-01
    38  3.7000000000000E-01  6.5438407457460E-01 -4.2778460184342E-01
    39  3.8000000000000E-01  6.8184401612798E-01 -4.4089248757773E-01
    40  3.9000000000000E-01  7.0922534599156E-01 -4.5339821317385E-01
    41  4.0000000000000E-01  7.3647843006201E-01 -4.6525090033587E-01
    42  4.1000000000000E-01  7.6355402207288E-01 -4.7640108978441E-01
    43  4.2000000000000E-01  7.9040336038805E-01 -4.8680088358251E-01
    44  4.3000000000000E-01  8.1697826360978E-01 -4.9640408348249E-01
    45  4.4000000000000E-01  8.4323122480006E-01 -5.0516632489943E-01
    46  4.5000000000000E-01  8.6911550411613E-01 -5.1304520612582E-01
    47  4.6000000000000E-01  8.9458521966447E-01 -5.2000041241157E-01
    48  4.7000000000000E-01  9.1959543638034E-01 -5.2599383454396E-01
    49  4.8000000000000E-01  9.4410225274436E-01 -5.3098968157366E-01
    50  4.9000000000000E-01  9.6806288515091E-01 -5.3495458734506E-01
    51  5.0000000000000E-01  9.9143574974829E-01 -5.3785771050246E-01
    52  5.1000000000000E-01  1.0141805415747E+00 -5.3967082765732E-01
    53  5.2000000000000E-01  1.0362583108197E+00 -5.4036841941684E-01
    54  5.3000000000000E-01  1.0576315360457E+00 -5.3992774898961E-01
    55  5.4000000000000E-01  1.0782641942106E+00 -5.3832893310025E-01
    56  5.5000000000000E-01  1.0981218273378E+00 -5.3555500496236E-01
    57  5.6000000000000E-01  1.1171716056863E+00 -5.3159196907680E-01
    58  5.7000000000000E-01  1.1353823872816E+00 -5.2642884764099E-01
    59  5.8000000000000E-01  1.1527247736731E+00 -5.2005771837432E-01
    60  5.9000000000000E-01  1.1691711617917E+00 -5.1247374358456E-01
    61  6.0000000000000E-01  1.1846957917897E+00 -5.0367519032141E-01
    62  6.1000000000000E-01  1.1992747907518E+00 -4.9366344148407E-01
    63  6.2000000000000E-01  1.2128862121734E+00 -4.8244299777237E-01
    64  6.3000000000000E-01  1.2255100711127E+00 -4.7002147039343E-01
    65  6.4000000000000E-01  1.2371283749302E+00 -4.5640956445924E-01
    66  6.5000000000000E-01  1.2477251495373E+00 -4.4162105303430E-01
    67  6.6000000000000E-01  1.2572864610864E+00 -4.2567274181765E-01
    68  6.7000000000000E-01  1.2658004330429E+00 -4.0858442446783E-01
    69  6.8000000000000E-01  1.2732572585886E+00 -3.9037882860595E-01
    70  6.9000000000000E-01  1.2796492083173E+00 -3.7108155255758E-01
    71  7.0000000000000E-01  1.2849706331905E+00 -3.5072099292132E-01
    72  7.1000000000000E-01  1.2892179627335E+00 -3.2932826307934E-01
    73  7.2000000000000E-01  1.2923896984607E+00 -3.0693710279245E-01
    74  7.3000000000000E-01  1.2944864025305E+00 -2.8358377905103E-01
    75  7.4000000000000E-01  1.2955106816388E+00 -2.5930697838171E-01
    76  7.5000000000000E-01  1.2954671661724E+00 -2.3414769083868E-01
    77  7.6000000000000E-01  1.2943624846548E+00 -2.0814908593823E-01
    78  7.7000000000000E-01  1.2922052335232E+00 -1.8135638082501E-01
    79  7.8000000000000E-01  1.2890059422947E+00 -1.5381670098872E-01
    80  7.9000000000000E-01  1.2847770341813E+00 -1.2557893388059E-01
    81  8.0000000000000E-01  1.2795327822318E+00 -9.6693575809865E-02