Au    ONCVPSP-4.0.1  r_core=   2.46716   2.46716   2.18896   3.13413
     79.0000     19.0000      190817    zatom,zion,pspd
     8       2   3     4   600     0    pspcod,pspxc,lmax,lloc,mmax,r2well
  5.99000000  0.00000000  0.00000000    rchrg fchrg qchrg
     2     2     2     2     0    nproj
     1     1           extension_switch
   0                         4.1116907906692E+00  5.6906444973116E-01
     1  0.0000000000000E+00 -5.3456128412677E-12  5.9026958668107E-13
     2  1.0000000000000E-02  5.7706316705087E-02 -9.2414236182460E-05
     3  2.0000000000000E-02  1.1531564874065E-01 -1.5560655859852E-04
     4  3.0000000000000E-02  1.7273121086200E-01 -1.6041558709592E-04
     5  4.0000000000000E-02  2.2985661619250E-01 -7.7800910473146E-05
     6  5.0000000000000E-02  2.8659607420517E-01  1.2109667451896E-04
     7  6.0000000000000E-02  3.4285458726497E-01  4.6489521831338E-04
     8  7.0000000000000E-02  3.9853814525844E-01  9.8191206497013E-04
     9  8.0000000000000E-02  4.5355391784257E-01  1.7001047865057E-03
    10  9.0000000000000E-02  5.0781044385149E-01  2.6470127007324E-03
    11  1.0000000000000E-01  5.6121781740745E-01  3.8496990672066E-03
    12  1.1000000000000E-01  6.1368787029203E-01  5.3346940546250E-03
    13  1.2000000000000E-01  6.6513435014373E-01  7.1279385715613E-03
    14  1.3000000000000E-01  7.1547309405988E-01  9.2547290507658E-03
    15  1.4000000000000E-01  7.6462219719385E-01  1.1739663275446E-02
    16  1.5000000000000E-01  8.1250217595224E-01  1.4606587333901E-02
    17  1.6000000000000E-01  8.5903612541206E-01  1.7878543786522E-02
    18  1.7000000000000E-01  9.0414987059406E-01  2.1577721126846E-02
    19  1.8000000000000E-01  9.4777211124541E-01  2.5725404615588E-02
    20  1.9000000000000E-01  9.8983455980313E-01  3.0341928563689E-02
    21  2.0000000000000E-01  1.0302720722287E+00  3.5446630137342E-02
    22  2.1000000000000E-01  1.0690227714242E+00  4.1057804754813E-02
    23  2.2000000000000E-01  1.1060281629604E+00  4.7192663141098E-02
    24  2.3000000000000E-01  1.1412332428696E+00  5.3867290103217E-02
    25  2.4000000000000E-01  1.1745865972767E+00  6.1096605084847E-02
    26  2.5000000000000E-01  1.2060404936666E+00  6.8894324555185E-02
    27  2.6000000000000E-01  1.2355509636045E+00  7.7272926283014E-02
    28  2.7000000000000E-01  1.2630778767570E+00  8.6243615542479E-02
    29  2.8000000000000E-01  1.2885850060758E+00  9.5816293293293E-02
    30  2.9000000000000E-01  1.3120400840393E+00  1.0599952637356E-01
    31  3.0000000000000E-01  1.3334148498648E+00  1.1680051973925E-01
    32  3.1000000000000E-01  1.3526850876311E+00  1.2822509078031E-01
    33  3.2000000000000E-01  1.3698306552770E+00  1.4027764573906E-01
    34  3.3000000000000E-01  1.3848355044616E+00  1.5296115825264E-01
    35  3.4000000000000E-01  1.3976876913010E+00  1.6627715003753E-01
    36  3.5000000000000E-01  1.4083793780155E+00  1.8022567373028E-01
    37  3.6000000000000E-01  1.4169068255490E+00  1.9480529789545E-01
    38  3.7000000000000E-01  1.4232703772416E+00  2.1001309420846E-01
    39  3.8000000000000E-01  1.4274744336637E+00  2.2584462681833E-01
    40  3.9000000000000E-01  1.4295274187363E+00  2.4229394389302E-01
    41  4.0000000000000E-01  1.4294417372901E+00  2.5935357134778E-01
    42  4.1000000000000E-01  1.4272337242305E+00  2.7701450875562E-01
    43  4.2000000000000E-01  1.4229235855018E+00  2.9526622743796E-01
    44  4.3000000000000E-01  1.4165353310575E+00  3.1409667073257E-01
    45  4.4000000000000E-01  1.4080967000662E+00  3.3349225643635E-01
    46  4.5000000000000E-01  1.3976390785976E+00  3.5343788142081E-01
    47  4.6000000000000E-01  1.3851974100504E+00  3.7391692841889E-01
    48  4.7000000000000E-01  1.3708100985983E+00  3.9491127498391E-01
    49  4.8000000000000E-01  1.3545189059463E+00  4.1640130462328E-01
    50  4.9000000000000E-01  1.3363688417009E+00  4.3836592011232E-01
    51  5.0000000000000E-01  1.3164080476696E+00  4.6078255899704E-01
    52  5.1000000000000E-01  1.2946876764179E+00  4.8362721129827E-01
    53  5.2000000000000E-01  1.2712617644188E+00  5.0687443943390E-01
    54  5.3000000000000E-01  1.2461871001405E+00  5.3049740038063E-01
    55  5.4000000000000E-01  1.2195230874232E+00  5.5446787010162E-01
    56  5.5000000000000E-01  1.1913316045033E+00  5.7875627027187E-01
    57  5.6000000000000E-01  1.1616768590470E+00  6.0333169733842E-01
    58  5.7000000000000E-01  1.1306252395591E+00  6.2816195395878E-01
    59  5.8000000000000E-01  1.0982451635345E+00  6.5321358286597E-01
    60  5.9000000000000E-01  1.0646069227234E+00  6.7845190321503E-01
    61  6.0000000000000E-01  1.0297825258766E+00  7.0384104947096E-01
    62  6.1000000000000E-01  9.9384553934272E-01  7.2934401290367E-01
    63  6.2000000000000E-01  9.5687092587981E-01  7.5492268576019E-01
    64  6.3000000000000E-01  9.1893488204752E-01  7.8053790818934E-01
    65  6.4000000000000E-01  8.8011467453736E-01  8.0614951799742E-01
    66  6.5000000000000E-01  8.4048847579590E-01  8.3171640331690E-01
    67  6.6000000000000E-01  8.0013519928988E-01  8.5719655827226E-01
    68  6.7000000000000E-01  7.5913433475524E-01  8.8254714172840E-01
    69  6.8000000000000E-01  7.1756578376581E-01  9.0772453920722E-01
    70  6.9000000000000E-01  6.7550969594921E-01  9.3268442805657E-01
    71  7.0000000000000E-01  6.3304630616967E-01  9.5738184595383E-01
    72  7.1000000000000E-01  5.9025577298873E-01  9.8177126282191E-01
    73  7.2000000000000E-01  5.4721801870591E-01  1.0058066562302E+00
    74  7.3000000000000E-01  5.0401257127204E-01  1.0294415903456E+00
    75  7.4000000000000E-01  4.6071840835850E-01  1.0526292984905E+00
    76  7.5000000000000E-01  4.1741380385584E-01  1.0753227693525E+00
    77  7.6000000000000E-01  3.7417617706549E-01  1.0974748368791E+00
    78  7.7000000000000E-01  3.3108194483850E-01  1.1190382738759E+00
    79  7.8000000000000E-01  2.8820637690524E-01  1.1399658893098E+00
    80  7.9000000000000E-01  2.4562345463050E-01  1.1602106293009E+00
    81  8.0000000000000E-01  2.0340573341862E-01  1.1797256817651E+00
    82  8.1000000000000E-01  1.6162420898388E-01  1.1984645846496E+00
    83  8.2000000000000E-01  1.2034818769231E-01  1.2163813376757E+00
    84  8.3000000000000E-01  7.9645161171838E-02  1.2334305174810E+00
    85  8.4000000000000E-01  3.9580685379376E-02  1.2495673960232E+00
    86  8.5000000000000E-01  2.1826430457101E-04  1.2647480620785E+00
    87  8.6000000000000E-01 -3.8380761517625E-02  1.2789295456384E+00
    88  8.7000000000000E-01 -7.6157321521536E-02  1.2920699449748E+00
    89  8.8000000000000E-01 -1.1305471649569E-01  1.3041285561123E+00
    90  8.9000000000000E-01 -1.4901871468851E-01  1.3150660044103E+00
    91  9.0000000000000E-01 -1.8399764249183E-01  1.3248443779254E+00
    92  9.1000000000000E-01 -2.1794246956605E-01  1.3334273621868E+00
    93  9.2000000000000E-01 -2.5080688827676E-01  1.3407803759847E+00
    94  9.3000000000000E-01 -2.8254738731873E-01  1.3468707077340E+00
    95  9.4000000000000E-01 -3.1312331940915E-01  1.3516676519426E+00
    96  9.5000000000000E-01 -3.4249696293750E-01  1.3551426452787E+00
    97  9.6000000000000E-01 -3.7063357746492E-01  1.3572694016969E+00
    98  9.7000000000000E-01 -3.9750145297187E-01  1.3580240460537E+00
    99  9.8000000000000E-01 -4.2307195275782E-01  1.3573852456092E+00
   100  9.9000000000000E-01 -4.4731954990278E-01  1.3553343387852E+00
   101  1.0000000000000E+00 -4.7022185720585E-01  1.3518554605234E+00
   102  1.0100000000000E+00 -4.9175965052212E-01  1.3469356635624E+00
   103  1.0200000000000E+00 -5.1191688542505E-01  1.3405650349319E+00
   104  1.0300000000000E+00 -5.3068070712828E-01  1.3327368069445E+00
   105  1.0400000000000E+00 -5.4804145360721E-01  1.3234474619497E+00
   106  1.0500000000000E+00 -5.6399265186832E-01  1.3126968301069E+00
   107  1.0600000000000E+00 -5.7853100732161E-01  1.3004881794216E+00
   108  1.0700000000000E+00 -5.9165638621989E-01  1.2868282972933E+00
   109  1.0800000000000E+00 -6.0337179113753E-01  1.2717275628183E+00
   110  1.0900000000000E+00 -6.1368332947069E-01  1.2552000091012E+00
   111  1.1000000000000E+00 -6.2260017495125E-01  1.2372633748379E+00
   112  1.1100000000000E+00 -6.3013452217723E-01  1.2179391444485E+00
   113  1.1200000000000E+00 -6.3630153417457E-01  1.1972525760595E+00
   114  1.1300000000000E+00 -6.4111928301672E-01  1.1752327166596E+00
   115  1.1400000000000E+00 -6.4460868354226E-01  1.1519124037844E+00
   116  1.1500000000000E+00 -6.4679342022393E-01  1.1273282531215E+00
   117  1.1600000000000E+00 -6.4769986725728E-01  1.1015206314655E+00
   118  1.1700000000000E+00 -6.4735700195251E-01  1.0745336145009E+00
   119  1.1800000000000E+00 -6.4579631152847E-01  1.0464149289389E+00
   120  1.1900000000000E+00 -6.4305169342495E-01  1.0172158785889E+00
   121  1.2000000000000E+00 -6.3915934926619E-01  9.8699125400550E-01
   122  1.2100000000000E+00 -6.3415767262623E-01  9.5579922541373E-01
   123  1.2200000000000E+00 -6.2808713076509E-01  9.2370121868255E-01
   124  1.2300000000000E+00 -6.2099014052324E-01  8.9076177418752E-01
   125  1.2400000000000E+00 -6.1291093858043E-01  8.5704838847616E-01
   126  1.2500000000000E+00 -6.0389544630461E-01  8.2263133872651E-01
   127  1.2600000000000E+00 -5.9399112943515E-01  7.8758349006782E-01
   128  1.2700000000000E+00 -5.8324685286433E-01  7.5198008591248E-01
   129  1.2800000000000E+00 -5.7171273079982E-01  7.1589852153082E-01
   130  1.2900000000000E+00 -5.5943997260969E-01  6.7941810118270E-01
   131  1.3000000000000E+00 -5.4648072467025E-01  6.4261977920309E-01
   132  1.3100000000000E+00 -5.3288790855442E-01  6.0558588552238E-01
   133  1.3200000000000E+00 -5.1871505591639E-01  5.6839983618392E-01
   134  1.3300000000000E+00 -5.0401614044408E-01  5.3114582950302E-01
   135  1.3400000000000E+00 -4.8884540726734E-01  4.9390852859064E-01
   136  1.3500000000000E+00 -4.7325720022384E-01  4.5677273104244E-01
   137  1.3600000000000E+00 -4.5730578739851E-01  4.1982302666803E-01
   138  1.3700000000000E+00 -4.4104518536421E-01  3.8314344420548E-01
   139  1.3800000000000E+00 -4.2452898256242E-01  3.4681708803415E-01
   140  1.3900000000000E+00 -4.0781016227151E-01  3.1092576596019E-01
   141  1.4000000000000E+00 -3.9094092561823E-01  2.7554960920739E-01
   142  1.4100000000000E+00 -3.7397251509338E-01  2.4076668579778E-01
   143  1.4200000000000E+00 -3.5695503903691E-01  2.0665260855293E-01
   144  1.4300000000000E+00 -3.3993729755963E-01  1.7328013898705E-01
   145  1.4400000000000E+00 -3.2296661036870E-01  1.4071878839653E-01
   146  1.4500000000000E+00 -3.0608864696212E-01  1.0903441747753E-01
   147  1.4600000000000E+00 -2.8934725965315E-01  7.8288835822764E-02
   148  1.4700000000000E+00 -2.7278431987946E-01  4.8539402660958E-02
   149  1.4800000000000E+00 -2.5643955824323E-01  1.9838630207547E-02
   150  1.4900000000000E+00 -2.4035040871776E-01 -7.7662090078438E-03
   151  1.5000000000000E+00 -2.2455185744347E-01 -3.4233469481944E-02
   152  1.5100000000000E+00 -2.0907629652103E-01 -5.9527513409239E-02
   153  1.5200000000000E+00 -1.9395338319247E-01 -8.3619083372910E-02
   154  1.5300000000000E+00 -1.7920990478203E-01 -1.0648566577748E-01
   155  1.5400000000000E+00 -1.6486964974725E-01 -1.2811184378556E-01
   156  1.5500000000000E+00 -1.5095328516816E-01 -1.4848963856953E-01
   157  1.5600000000000E+00 -1.3747823979037E-01 -1.6761884249057E-01
   158  1.5700000000000E+00 -1.2445860092017E-01 -1.8550731073832E-01
   159  1.5800000000000E+00 -1.1190501737617E-01 -2.0217124557352E-01
   160  1.5900000000000E+00 -9.9824505967394E-02 -2.1763586215281E-01
   161  1.6000000000000E+00 -8.8224440167971E-02 -2.3191951620045E-01
   162  1.6100000000000E+00 -7.7104389004676E-02 -2.4506601358850E-01
   163  1.6200000000000E+00 -6.6514641580431E-02 -2.5691487826898E-01
   164  1.6300000000000E+00 -5.6417218470259E-02 -2.6764924995680E-01
   165  1.6400000000000E+00 -4.6803523751783E-02 -2.7733115005640E-01
   166  1.6500000000000E+00 -3.7690753081876E-02 -2.8591657609662E-01
   167  1.6600000000000E+00 -2.9075033151313E-02 -2.9344063340570E-01
   168  1.6700000000000E+00 -2.0955190679069E-02 -2.9992383202050E-01
   169  1.6800000000000E+00 -1.3328154068825E-02 -3.0539043120098E-01
   170  1.6900000000000E+00 -6.1896426647842E-03 -3.0986589468240E-01
   171  1.7000000000000E+00  4.6583472976278E-04 -3.1337707457118E-01
   172  1.7100000000000E+00  6.6449339258692E-03 -3.1595220716152E-01
   173  1.7200000000000E+00  1.2355426405447E-02 -3.1762089589388E-01
   174  1.7300000000000E+00  1.7606147503126E-02 -3.1841408181940E-01
   175  1.7400000000000E+00  2.2406941862515E-02 -3.1836400195519E-01
   176  1.7500000000000E+00  2.6768606335533E-02 -3.1750413598710E-01
   177  1.7600000000000E+00  3.0702830510762E-02 -3.1586914183911E-01
   178  1.7700000000000E+00  3.4222135073217E-02 -3.1349478068942E-01
   179  1.7800000000000E+00  3.7339808213429E-02 -3.1041783206999E-01
   180  1.7900000000000E+00  4.0069840317411E-02 -3.0667599973810E-01
   181  1.8000000000000E+00  4.2426857183505E-02 -3.0230780906254E-01
   182  1.8100000000000E+00  4.4426052021906E-02 -2.9735249670554E-01
   183  1.8200000000000E+00  4.6083116502627E-02 -2.9184989342072E-01
   184  1.8300000000000E+00  4.7414171129208E-02 -2.8584030083309E-01
   185  1.8400000000000E+00  4.8435695218774E-02 -2.7936436308378E-01
   186  1.8500000000000E+00  4.9164456776462E-02 -2.7246293425355E-01
   187  1.8600000000000E+00  4.9617442555166E-02 -2.6517694249610E-01
   188  1.8700000000000E+00  4.9811788593478E-02 -2.5754725182497E-01
   189  1.8800000000000E+00  4.9764711524761E-02 -2.4961452250515E-01
   190  1.8900000000000E+00  4.9493440948509E-02 -2.4141907100169E-01
   191  1.9000000000000E+00  4.9015153151624E-02 -2.3300073043271E-01
   192  1.9100000000000E+00  4.8346906461943E-02 -2.2439871246400E-01
   193  1.9200000000000E+00  4.7505578509262E-02 -2.1565147156575E-01
   194  1.9300000000000E+00  4.6507805660296E-02 -2.0679657252999E-01
   195  1.9400000000000E+00  4.5369924883548E-02 -1.9787056211969E-01
   196  1.9500000000000E+00  4.4107918287890E-02 -1.8890884568722E-01
   197  1.9600000000000E+00  4.2737360565323E-02 -1.7994556956242E-01
   198  1.9700000000000E+00  4.1273369552767E-02 -1.7101350996615E-01
   199  1.9800000000000E+00  3.9730560111643E-02 -1.6214396915824E-01
   200  1.9900000000000E+00  3.8123001506041E-02 -1.5336667947630E-01
   201  2.0000000000000E+00  3.6464178441447E-02 -1.4470971586593E-01
   202  2.0100000000000E+00  3.4766955905600E-02 -1.3619941744178E-01
   203  2.0200000000000E+00  3.3043547932761E-02 -1.2786031855777E-01
   204  2.0300000000000E+00  3.1305490390496E-02 -1.1971508979777E-01
   205  2.0400000000000E+00  2.9563617865482E-02 -1.1178448922869E-01
   206  2.0500000000000E+00  2.7828044702301E-02 -1.0408732418908E-01
   207  2.0600000000000E+00  2.6108150225771E-02 -9.6640423814188E-02
   208  2.0700000000000E+00  2.4412568153055E-02 -8.9458622422854E-02
   209  2.0800000000000E+00  2.2749180179999E-02 -8.2554753824277E-02
   210  2.0900000000000E+00  2.1125113700364E-02 -7.5939656522021E-02
   211  2.1000000000000E+00  1.9546743594550E-02 -6.9622189723394E-02
   212  2.1100000000000E+00  1.8019698001289E-02 -6.3609259989754E-02
   213  2.1200000000000E+00  1.6548867962493E-02 -5.7905858289628E-02
   214  2.1300000000000E+00  1.5138420811402E-02 -5.2515107152988E-02
   215  2.1400000000000E+00  1.3791817151304E-02 -4.7438317552289E-02
   216  2.1500000000000E+00  1.2511831252814E-02 -4.2675055074077E-02
   217  2.1600000000000E+00  1.1300574679034E-02 -3.8223214885008E-02
   218  2.1700000000000E+00  1.0159522928912E-02 -3.4079104934649E-02
   219  2.1800000000000E+00  9.0895448753675E-03 -3.0237536792860E-02
   220  2.1900000000000E+00  8.0909347559492E-03 -2.6691923457816E-02
   221  2.2000000000000E+00  7.1634464631592E-03 -2.3434383435652E-02
   222  2.2100000000000E+00  6.3063298681765E-03 -2.0455850347822E-02
   223  2.2200000000000E+00  5.5183689027403E-03 -1.7746187291905E-02
   224  2.2300000000000E+00  4.7979211140696E-03 -1.5294305147461E-02
   225  2.2400000000000E+00  4.1429584017946E-03 -1.3088283997302E-02
   226  2.2500000000000E+00  3.5511086411201E-03 -1.1115496816463E-02
   227  2.2600000000000E+00  3.0196978935806E-03 -9.3627345693066E-03
   228  2.2700000000000E+00  2.5457929051656E-03 -7.8163318468188E-03
   229  2.2800000000000E+00  2.1262435930058E-03 -6.4622921771925E-03
   230  2.2900000000000E+00  1.7577252252089E-03 -5.2864121499268E-03
   231  2.3000000000000E+00  1.4367800850622E-03 -4.2744046277495E-03
   232  2.3100000000000E+00  1.1598577529146E-03 -3.4120123450923E-03
   233  2.3200000000000E+00  9.2335506050175E-04 -2.6851294774221E-03
   234  2.3300000000000E+00  7.2365570803760E-04 -2.0799285263994E-03
   235  2.3400000000000E+00  5.5716175144356E-04 -1.5829184939444E-03
   236  2.3500000000000E+00  4.2029971808080E-04 -1.1806242742358E-03
   237  2.3600000000000E+00  3.0954170603247E-04 -8.5948049895588E-04
   238  2.3700000000000E+00  2.2158157681484E-04 -6.0791287126933E-04
   239  2.3800000000000E+00  1.5329245559292E-04 -4.1555403038760E-04
   240  2.3900000000000E+00  1.0168902787303E-04 -2.7251716955386E-04
   241  2.4000000000000E+00  6.3973083414277E-05 -1.6973551407955E-04
   242  2.4100000000000E+00  3.7548868483633E-05 -9.8962524329928E-05
   243  2.4200000000000E+00  2.0041199614268E-05 -5.2834965360941E-05
   244  2.4300000000000E+00  9.3081726777132E-06 -2.4910391480827E-05
   245  2.4400000000000E+00  3.4565011084685E-06 -9.6929764167678E-06
   246  2.4500000000000E+00  8.3807462521550E-07 -2.6692950066617E-06
   247  2.4600000000000E+00  6.2896293665365E-08 -3.3652500199122E-07
   248  2.4700000000000E+00 -2.0510625128394E-11  1.9212629374804E-08
   249  2.4800000000000E+00  3.0152175072918E-09  2.2824881344429E-09
   250  2.49  0. -0.
   251  2.50 -0.  0.
   252  2.51 -0.  0.
   253  2.52 -0.  0.
   254  2.53  0.  0.
   255  2.54  0.  0.
   256  2.55  0.  0.
   257  2.56  0.  0.
   258  2.57  0.  0.
   259  2.58  0.  0.
   260  2.59  0.  0.
   261  2.60  0.  0.
   262  2.61  0.  0.
   263  2.62  0.  0.
   264  2.63  0.  0.
   265  2.64  0.  0.
   266  2.65  0.  0.
   267  2.66  0.  0.
   268  2.67  0.  0.
   269  2.68  0.  0.
   270  2.69  0.  0.
   271  2.70  0.  0.
   272  2.71  0.  0.
   273  2.72  0.  0.
   274  2.73  0.  0.
   275  2.74  0.  0.
   276  2.75  0.  0.
   277  2.76  0.  0.
   278  2.77  0.  0.
   279  2.78  0.  0.
   280  2.79  0.  0.
   281  2.80  0.  0.
   282  2.81  0.  0.
   283  2.82  0.  0.
   284  2.83  0.  0.
   285  2.84  0.  0.
   286  2.85  0.  0.
   287  2.86  0.  0.
   288  2.87  0.  0.
   289  2.88  0.  0.
   290  2.89  0.  0.
   291  2.90  0.  0.
   292  2.91  0.  0.
   293  2.92  0.  0.
   294  2.93  0.  0.
   295  2.94  0.  0.
   296  2.95  0.  0.
   297  2.96  0.  0.
   298  2.97  0.  0.
   299  2.98  0.  0.
   300  2.99  0.  0.
   301  3.00  0.  0.
   302  3.01  0.  0.
   303  3.02  0.  0.
   304  3.03  0.  0.
   305  3.04  0.  0.
   306  3.05  0.  0.
   307  3.06  0.  0.
   308  3.07  0.  0.
   309  3.08  0.  0.
   310  3.09  0.  0.
   311  3.10  0.  0.
   312  3.11  0.  0.
   313  3.12  0.  0.
   314  3.13  0.  0.
   315  3.14  0.  0.
   316  3.15  0.  0.
   317  3.16  0.  0.
   318  3.17  0.  0.
   319  3.18  0.  0.
   320  3.19  0.  0.
   321  3.20  0.  0.
   322  3.21  0.  0.
   323  3.22  0.  0.
   324  3.23  0.  0.
   325  3.24  0.  0.
   326  3.25  0.  0.
   327  3.26  0.  0.
   328  3.27  0.  0.
   329  3.28  0.  0.
   330  3.29  0.  0.
   331  3.30  0.  0.
   332  3.31  0.  0.
   333  3.32  0.  0.
   334  3.33  0.  0.
   335  3.34  0.  0.
   336  3.35  0.  0.
   337  3.36  0.  0.
   338  3.37  0.  0.
   339  3.38  0.  0.
   340  3.39  0.  0.
   341  3.40  0.  0.
   342  3.41  0.  0.
   343  3.42  0.  0.
   344  3.43  0.  0.
   345  3.44  0.  0.
   346  3.45  0.  0.
   347  3.46  0.  0.
   348  3.47  0.  0.
   349  3.48  0.  0.
   350  3.49  0.  0.
   351  3.50  0.  0.
   352  3.51  0.  0.
   353  3.52  0.  0.
   354  3.53  0.  0.
   355  3.54  0.  0.
   356  3.55  0.  0.
   357  3.56  0.  0.
   358  3.57  0.  0.
   359  3.58  0.  0.
   360  3.59  0.  0.
   361  3.60  0.  0.
   362  3.61  0.  0.
   363  3.62  0.  0.
   364  3.63  0.  0.
   365  3.64  0.  0.
   366  3.65  0.  0.
   367  3.66  0.  0.
   368  3.67  0.  0.
   369  3.68  0.  0.
   370  3.69  0.  0.
   371  3.70  0.  0.
   372  3.71  0.  0.
   373  3.72  0.  0.
   374  3.73  0.  0.
   375  3.74  0.  0.
   376  3.75  0.  0.
   377  3.76  0.  0.
   378  3.77  0.  0.
   379  3.78  0.  0.
   380  3.79  0.  0.
   381  3.80  0.  0.
   382  3.81  0.  0.
   383  3.82  0.  0.
   384  3.83  0.  0.
   385  3.84  0.  0.
   386  3.85  0.  0.
   387  3.86  0.  0.
   388  3.87  0.  0.
   389  3.88  0.  0.
   390  3.89  0.  0.
   391  3.90  0.  0.
   392  3.91  0.  0.
   393  3.92  0.  0.
   394  3.93  0.  0.
   395  3.94  0.  0.
   396  3.95  0.  0.
   397  3.96  0.  0.
   398  3.97  0.  0.
   399  3.98  0.  0.
   400  3.99  0.  0.
   401  4.00  0.  0.
   402  4.01  0.  0.
   403  4.02  0.  0.
   404  4.03  0.  0.
   405  4.04  0.  0.
   406  4.05  0.  0.
   407  4.06  0.  0.
   408  4.07  0.  0.
   409  4.08  0.  0.
   410  4.09  0.  0.
   411  4.10  0.  0.
   412  4.11  0.  0.
   413  4.12  0.  0.
   414  4.13  0.  0.
   415  4.14  0.  0.
   416  4.15  0.  0.
   417  4.16  0.  0.
   418  4.17  0.  0.
   419  4.18  0.  0.
   420  4.19  0.  0.
   421  4.20  0.  0.
   422  4.21  0.  0.
   423  4.22  0.  0.
   424  4.23  0.  0.
   425  4.24  0.  0.
   426  4.25  0.  0.
   427  4.26  0.  0.
   428  4.27  0.  0.
   429  4.28  0.  0.
   430  4.29  0.  0.
   431  4.30  0.  0.
   432  4.31  0.  0.
   433  4.32  0.  0.
   434  4.33  0.  0.
   435  4.34  0.  0.
   436  4.35  0.  0.
   437  4.36  0.  0.
   438  4.37  0.  0.
   439  4.38  0.  0.
   440  4.39  0.  0.
   441  4.40  0.  0.
   442  4.41  0.  0.
   443  4.42  0.  0.
   444  4.43  0.  0.
   445  4.44  0.  0.
   446  4.45  0.  0.
   447  4.46  0.  0.
   448  4.47  0.  0.
   449  4.48  0.  0.
   450  4.49  0.  0.
   451  4.50  0.  0.
   452  4.51  0.  0.
   453  4.52  0.  0.
   454  4.53  0.  0.
   455  4.54  0.  0.
   456  4.55  0.  0.
   457  4.56  0.  0.
   458  4.57  0.  0.
   459  4.58  0.  0.
   460  4.59  0.  0.
   461  4.60  0.  0.
   462  4.61  0.  0.
   463  4.62  0.  0.
   464  4.63  0.  0.
   465  4.64  0.  0.
   466  4.65  0.  0.
   467  4.66  0.  0.
   468  4.67  0.  0.
   469  4.68  0.  0.
   470  4.69  0.  0.
   471  4.70  0.  0.
   472  4.71  0.  0.
   473  4.72  0.  0.
   474  4.73  0.  0.
   475  4.74  0.  0.
   476  4.75  0.  0.
   477  4.76  0.  0.
   478  4.77  0.  0.
   479  4.78  0.  0.
   480  4.79  0.  0.
   481  4.80  0.  0.
   482  4.81  0.  0.
   483  4.82  0.  0.
   484  4.83  0.  0.
   485  4.84  0.  0.
   486  4.85  0.  0.
   487  4.86  0.  0.
   488  4.87  0.  0.
   489  4.88  0.  0.
   490  4.89  0.  0.
   491  4.90  0.  0.
   492  4.91  0.  0.
   493  4.92  0.  0.
   494  4.93  0.  0.
   495  4.94  0.  0.
   496  4.95  0.  0.
   497  4.96  0.  0.
   498  4.97  0.  0.
   499  4.98  0.  0.
   500  4.99  0.  0.
   501  5.00  0.  0.
   502  5.01  0.  0.
   503  5.02  0.  0.
   504  5.03  0.  0.
   505  5.04  0.  0.
   506  5.05  0.  0.
   507  5.06  0.  0.
   508  5.07  0.  0.
   509  5.08  0.  0.
   510  5.09  0.  0.
   511  5.10  0.  0.
   512  5.11  0.  0.
   513  5.12  0.  0.
   514  5.13  0.  0.
   515  5.14  0.  0.
   516  5.15  0.  0.
   517  5.16  0.  0.
   518  5.17  0.  0.
   519  5.18  0.  0.
   520  5.19  0.  0.
   521  5.20  0.  0.
   522  5.21  0.  0.
   523  5.22  0.  0.
   524  5.23  0.  0.
   525  5.24  0.  0.
   526  5.25  0.  0.
   527  5.26  0.  0.
   528  5.27  0.  0.
   529  5.28  0.  0.
   530  5.29  0.  0.
   531  5.30  0.  0.
   532  5.31  0.  0.
   533  5.32  0.  0.
   534  5.33  0.  0.
   535  5.34  0.  0.
   536  5.35  0.  0.
   537  5.36  0.  0.
   538  5.37  0.  0.
   539  5.38  0.  0.
   540  5.39  0.  0.
   541  5.40  0.  0.
   542  5.41  0.  0.
   543  5.42  0.  0.
   544  5.43  0.  0.
   545  5.44  0.  0.
   546  5.45  0.  0.
   547  5.46  0.  0.
   548  5.47  0.  0.
   549  5.48  0.  0.
   550  5.49  0.  0.
   551  5.50  0.  0.
   552  5.51  0.  0.
   553  5.52  0.  0.
   554  5.53  0.  0.
   555  5.54  0.  0.
   556  5.55  0.  0.
   557  5.56  0.  0.
   558  5.57  0.  0.
   559  5.58  0.  0.
   560  5.59  0.  0.
   561  5.60  0.  0.
   562  5.61  0.  0.
   563  5.62  0.  0.
   564  5.63  0.  0.
   565  5.64  0.  0.
   566  5.65  0.  0.
   567  5.66  0.  0.
   568  5.67  0.  0.
   569  5.68  0.  0.
   570  5.69  0.  0.
   571  5.70  0.  0.
   572  5.71  0.  0.
   573  5.72  0.  0.
   574  5.73  0.  0.
   575  5.74  0.  0.
   576  5.75  0.  0.
   577  5.76  0.  0.
   578  5.77  0.  0.
   579  5.78  0.  0.
   580  5.79  0.  0.
   581  5.80  0.  0.
   582  5.81  0.  0.
   583  5.82  0.  0.
   584  5.83  0.  0.
   585  5.84  0.  0.
   586  5.85  0.  0.
   587  5.86  0.  0.
   588  5.87  0.  0.
   589  5.88  0.  0.
   590  5.89  0.  0.
   591  5.90  0.  0.
   592  5.91  0.  0.
   593  5.92  0.  0.
   594  5.93  0.  0.
   595  5.94  0.  0.
   596  5.95  0.  0.
   597  5.96  0.  0.
   598  5.97  0.  0.
   599  5.98  0.  0.
   600  5.99  0.  0.
   1                         2.5963081545895E+00 -1.5330485123053E-01
     1  0.0000000000000E+00  1.0073231138108E-10 -2.6885382808928E-11
     2  1.0000000000000E-02  1.2988338831031E-03  2.6919870994668E-04
     3  2.0000000000000E-02  5.1909059996834E-03  1.0761177296313E-03
     4  3.0000000000000E-02  1.1662942742470E-02  2.4187265849744E-03
     5  4.0000000000000E-02  2.0692871350713E-02  4.2936440219405E-03
     6  5.0000000000000E-02  3.2249894606020E-02  6.6961423613888E-03
     7  6.0000000000000E-02  4.6294595044892E-02  9.6201536973213E-03
     8  7.0000000000000E-02  6.2779068327733E-02  1.3058278037685E-02
     9  8.0000000000000E-02  8.1647085303418E-02  1.7001793513768E-02
    10  9.0000000000000E-02  1.0283428220939E-01  2.1440668808610E-02
    11  1.0000000000000E-01  1.2626837834993E-01  2.6363577977310E-02
    12  1.1000000000000E-01  1.5186942050049E-01  3.1757917852357E-02
    13  1.2000000000000E-01  1.7955005319357E-01  3.7609828245201E-02
    14  1.3000000000000E-01  2.0921581395221E-01  4.3904215169222E-02
    15  1.4000000000000E-01  2.4076545245123E-01  5.0624777321518E-02
    16  1.5000000000000E-01  2.7409127250351E-01  5.7754036068464E-02
    17  1.6000000000000E-01  3.0907949569007E-01  6.5273369184940E-02
    18  1.7000000000000E-01  3.4561064537785E-01  7.3163048597145E-02
    19  1.8000000000000E-01  3.8355994979884E-01  8.1402282376084E-02
    20  1.9000000000000E-01  4.2279776279858E-01  8.9969261221028E-02
    21  2.0000000000000E-01  4.6319000080091E-01  9.8841209660373E-02
    22  2.1000000000000E-01  5.0459859448008E-01  1.0799444218184E-01
    23  2.2000000000000E-01  5.4688195358076E-01  1.1740442448300E-01
    24  2.3000000000000E-01  5.8989544328081E-01  1.2704584000940E-01
    25  2.4000000000000E-01  6.3349187045248E-01  1.3689266191813E-01
    26  2.5000000000000E-01  6.7752197814298E-01  1.4691823057217E-01
    27  2.6000000000000E-01  7.2183494656757E-01  1.5709533663433E-01
    28  2.7000000000000E-01  7.6627889888571E-01  1.6739630978856E-01
    29  2.8000000000000E-01  8.1070141001427E-01  1.7779311307287E-01
    30  2.9000000000000E-01  8.5495001672157E-01  1.8825744276031E-01
    31  3.0000000000000E-01  8.9887272724160E-01  1.9876083367446E-01
    32  3.1000000000000E-01  9.4231852864938E-01  2.0927476977283E-01
    33  3.2000000000000E-01  9.8513789024638E-01  2.1977079977636E-01
    34  3.3000000000000E-01  1.0271832612187E+00  2.3022065756600E-01
    35  3.4000000000000E-01  1.0683095608509E+00  2.4059638700936E-01
    36  3.5000000000000E-01  1.1083746596029E+00  2.5087047082069E-01
    37  3.6000000000000E-01  1.1472398493920E+00  2.6101596299758E-01
    38  3.7000000000000E-01  1.1847703014559E+00  2.7100662431884E-01
    39  3.8000000000000E-01  1.2208355102185E+00  2.8081706032796E-01
    40  3.9000000000000E-01  1.2553097216284E+00  2.9042286116996E-01
    41  4.0000000000000E-01  1.2880723444929E+00  2.9980074259255E-01
    42  4.1000000000000E-01  1.3190083433920E+00  3.0892868736965E-01
    43  4.2000000000000E-01  1.3480086118184E+00  3.1778608635440E-01
    44  4.3000000000000E-01  1.3749703242618E+00  3.2635387832209E-01
    45  4.4000000000000E-01  1.3997972660267E+00  3.3461468772052E-01
    46  4.5000000000000E-01  1.4224001396534E+00  3.4255295940711E-01
    47  4.6000000000000E-01  1.4426968468939E+00  3.5015508941986E-01
    48  4.7000000000000E-01  1.4606127452783E+00  3.5740955080153E-01
    49  4.8000000000000E-01  1.4760808784010E+00  3.6430701347648E-01
    50  4.9000000000000E-01  1.4890421791467E+00  3.7084045716548E-01
    51  5.0000000000000E-01  1.4994456451714E+00  3.7700527631727E-01
    52  5.1000000000000E-01  1.5072484860565E+00  3.8279937603652E-01
    53  5.2000000000000E-01  1.5124162416508E+00  3.8822325799716E-01
    54  5.3000000000000E-01  1.5149228712200E+00  3.9328009534699E-01
    55  5.4000000000000E-01  1.5147508131312E+00  3.9797579563495E-01
    56  5.5000000000000E-01  1.5118910149008E+00  4.0231905082734E-01
    57  5.6000000000000E-01  1.5063429335449E+00  4.0632137352142E-01
    58  5.7000000000000E-01  1.4981145062799E+00  4.0999711851733E-01
    59  5.8000000000000E-01  1.4872220917249E+00  4.1336348896892E-01
    60  5.9000000000000E-01  1.4736903818691E+00  4.1644052640366E-01
    61  6.0000000000000E-01  1.4575522851738E+00  4.1925108397864E-01
    62  6.1000000000000E-01  1.4388487812823E+00  4.2182078242535E-01
    63  6.2000000000000E-01  1.4176287479204E+00  4.2417794822853E-01
    64  6.3000000000000E-01  1.3939487606679E+00  4.2635353368564E-01
    65  6.4000000000000E-01  1.3678728663874E+00  4.2838101859930E-01
    66  6.5000000000000E-01  1.3394723311917E+00  4.3029629346969E-01
    67  6.6000000000000E-01  1.3088253639278E+00  4.3213752417152E-01