Cu    ONCVPSP-4.0.1  r_core=   1.92508   1.87956   1.90218
     29.0000     19.0000      190817    zatom,zion,pspd
     8      11   2     4   600     0    pspcod,pspxc,lmax,lloc,mmax,r2well
  5.99000000  0.00000000  0.00000000    rchrg fchrg qchrg
     2     2     2     0     0    nproj
     1     1           extension_switch
   0                        -3.3398376705603E+00 -6.8372837748442E-02
     1  0.0000000000000E+00 -9.1504581689605E-13 -8.1557699482815E-10
     2  1.0000000000000E-02  4.3582975486724E-02  4.0470610848130E-02
     3  2.0000000000000E-02  8.7117273745352E-02  8.0659200073709E-02
     4  3.0000000000000E-02  1.3055429424335E-01  1.2028597400534E-01
     5  4.0000000000000E-02  1.7384558969256E-01  1.5907557439274E-01
     6  5.0000000000000E-02  2.1694294230460E-01  1.9675924512376E-01
     7  6.0000000000000E-02  2.5979843960690E-01  2.3307693833365E-01
     8  7.0000000000000E-02  3.0236454967385E-01  2.6777934067101E-01
     9  8.0000000000000E-02  3.4459419562851E-01  3.0062980130082E-01
    10  9.0000000000000E-02  3.8644082927171E-01  3.3140614422775E-01
    11  1.0000000000000E-01  4.2785850369645E-01  3.5990234870245E-01
    12  1.1000000000000E-01  4.6880194474752E-01  3.8593008281719E-01
    13  1.2000000000000E-01  5.0922662118795E-01  4.0932007688963E-01
    14  1.3000000000000E-01  5.4908881343639E-01  4.2992332486053E-01
    15  1.4000000000000E-01  5.8834568074198E-01  4.4761210367243E-01
    16  1.5000000000000E-01  6.2695532666614E-01  4.6228080243707E-01
    17  1.6000000000000E-01  6.6487686274401E-01  4.7384655511547E-01
    18  1.7000000000000E-01  7.0207047020167E-01  4.8224967240944E-01
    19  1.8000000000000E-01  7.3849745960953E-01  4.8745387057317E-01
    20  1.9000000000000E-01  7.7412032835615E-01  4.8944629687826E-01
    21  2.0000000000000E-01  8.0890281583172E-01  4.8823735348355E-01
    22  2.1000000000000E-01  8.4280995621534E-01  4.8386032344959E-01
    23  2.2000000000000E-01  8.7580812876576E-01  4.7637080457735E-01
    24  2.3000000000000E-01  9.0786510552083E-01  4.6584595862085E-01
    25  2.4000000000000E-01  9.3895009631739E-01  4.5238358520075E-01
    26  2.5000000000000E-01  9.6903379104960E-01  4.3610103141914E-01
    27  2.6000000000000E-01  9.9808839909075E-01  4.1713394971880E-01
    28  2.7000000000000E-01  1.0260876858108E+00  3.9563491793333E-01
    29  2.8000000000000E-01  1.0530070061292E+00  3.7177193672067E-01
    30  2.9000000000000E-01  1.0788233350513E+00  3.4572682064869E-01
    31  3.0000000000000E-01  1.1035152951424E+00  3.1769350009818E-01
    32  3.1000000000000E-01  1.1270631809061E+00  2.8787625185660E-01
    33  3.2000000000000E-01  1.1494489800360E+00  2.5648787678602E-01
    34  3.3000000000000E-01  1.1706563915250E+00  2.2374784326209E-01
    35  3.4000000000000E-01  1.1906708406203E+00  1.8988041518810E-01
    36  3.5000000000000E-01  1.2094794906225E+00  1.5511278329482E-01
    37  3.6000000000000E-01  1.2270712515376E+00  1.1967321814234E-01
    38  3.7000000000000E-01  1.2434367855963E+00  8.3789262748662E-02
    39  3.8000000000000E-01  1.2585685096663E+00  4.7685982090279E-02
    40  3.9000000000000E-01  1.2724605945905E+00  1.1584285856873E-02
    41  4.0000000000000E-01  1.2851089614914E+00 -2.4300660188483E-02
    42  4.1000000000000E-01  1.2965112750927E+00 -5.9760920083961E-02
    43  4.2000000000000E-01  1.3066669341119E+00 -9.4597157951598E-02
    44  4.3000000000000E-01  1.3155770587912E+00 -1.2861988132496E-01
    45  4.4000000000000E-01  1.3232444756338E+00 -1.6165054773101E-01
    46  4.5000000000000E-01  1.3296736994239E+00 -1.9352252640177E-01
    47  4.6000000000000E-01  1.3348709126131E+00 -2.2408190873187E-01
    48  4.7000000000000E-01  1.3388439421587E+00 -2.5318816288882E-01
    49  4.8000000000000E-01  1.3416022339073E+00 -2.8071462981059E-01
    50  4.9000000000000E-01  1.3431568246172E+00 -3.0654885966097E-01
    51  5.0000000000000E-01  1.3435203117201E+00 -3.3059278964162E-01
    52  5.1000000000000E-01  1.3427068209208E+00 -3.5276276585798E-01
    53  5.2000000000000E-01  1.3407319717379E+00 -3.7298941368450E-01
    54  5.3000000000000E-01  1.3376128410895E+00 -3.9121736275076E-01
    55  5.4000000000000E-01  1.3333679250252E+00 -4.0740483426076E-01
    56  5.5000000000000E-01  1.3280170987091E+00 -4.2152309983696E-01
    57  5.6000000000000E-01  1.3215815747541E+00 -4.3355582244155E-01
    58  5.7000000000000E-01  1.3140838600071E+00 -4.4349829114471E-01
    59  5.8000000000000E-01  1.3055477108834E+00 -4.5135656257921E-01
    60  5.9000000000000E-01  1.2959980873418E+00 -4.5714652282513E-01
    61  6.0000000000000E-01  1.2854611055932E+00 -4.6089288419812E-01
    62  6.1000000000000E-01  1.2739639896277E+00 -4.6262813196625E-01
    63  6.2000000000000E-01  1.2615350216421E+00 -4.6239143638409E-01
    64  6.3000000000000E-01  1.2482034914442E+00 -4.6022754560547E-01
    65  6.4000000000000E-01  1.2339996449072E+00 -4.5618567502033E-01
    66  6.5000000000000E-01  1.2189546315393E+00 -4.5031840835425E-01
    67  6.6000000000000E-01  1.2031004512307E+00 -4.4268062547383E-01
    68  6.7000000000000E-01  1.1864699002340E+00 -4.3332847126962E-01
    69  6.8000000000000E-01  1.1690965164287E+00 -4.2231837923674E-01
    70  6.9000000000000E-01  1.1510145239157E+00 -4.0970616246510E-01
    71  7.0000000000000E-01  1.1322587769836E+00 -3.9554618368398E-01
    72  7.1000000000000E-01  1.1128647034824E+00 -3.7989061480563E-01
    73  7.2000000000000E-01  1.0928682476397E+00 -3.6278879508444E-01
    74  7.3000000000000E-01  1.0723058123469E+00 -3.4428669557502E-01
    75  7.4000000000000E-01  1.0512142009450E+00 -3.2442649604935E-01
    76  7.5000000000000E-01  1.0296305585326E+00 -3.0324627893813E-01
    77  7.6000000000000E-01  1.0075923128225E+00 -2.8077984321705E-01
    78  7.7000000000000E-01  9.8513711456850E-01 -2.5705663948124E-01
    79  7.8000000000000E-01  9.6230277758860E-01 -2.3210182576518E-01
    80  7.9000000000000E-01  9.3912721840800E-01 -2.0593644198827E-01
    81  8.0000000000000E-01  9.1564839555167E-01 -1.7857769926080E-01
    82  8.1000000000000E-01  8.9190424851670E-01 -1.5003937869102E-01
    83  8.2000000000000E-01  8.6793263646024E-01 -1.2033233280974E-01
    84  8.3000000000000E-01  8.4377127664385E-01 -8.9465081295310E-02
    85  8.4000000000000E-01  8.1945768268088E-01 -5.7444491355183E-02
    86  8.5000000000000E-01  7.9502910264092E-01 -2.4276531916899E-02
    87  8.6000000000000E-01  7.7052245707287E-01  1.0032910282031E-02
    88  8.7000000000000E-01  7.4597427701694E-01  4.5477165528126E-02
    89  8.8000000000000E-01  7.2142064208528E-01  8.2047880460967E-02
    90  8.9000000000000E-01  6.9689711870047E-01  1.1973409604285E-01
    91  9.0000000000000E-01  6.7243869859189E-01  1.5852131870883E-01
    92  9.1000000000000E-01  6.4807973766064E-01  1.9839059944539E-01
    93  9.2000000000000E-01  6.2385389533442E-01  2.3931763556395E-01
    94  9.3000000000000E-01  5.9979407454553E-01  2.8127190976464E-01
    95  9.4000000000000E-01  5.7593236247567E-01  3.2421588072588E-01
    96  9.5000000000000E-01  5.5229997222269E-01  3.6810423891027E-01
    97  9.6000000000000E-01  5.2892718555493E-01  4.1288324055461E-01
    98  9.7000000000000E-01  5.0584329692890E-01  4.5849013191707E-01
    99  9.8000000000000E-01  4.8307655895598E-01  5.0485267480098E-01
   100  9.9000000000000E-01  4.6065412951218E-01  5.5188878317266E-01
   101  1.0000000000000E+00  4.3860202069335E-01  5.9950627935404E-01
   102  1.0100000000000E+00  4.1694504982448E-01  6.4760277681755E-01
   103  1.0200000000000E+00  3.9570679273787E-01  6.9606569505651E-01
   104  1.0300000000000E+00  3.7490953953845E-01  7.4477241036608E-01
   105  1.0400000000000E+00  3.5457425307767E-01  7.9359054467208E-01
   106  1.0500000000000E+00  3.3472053035820E-01  8.4237839280416E-01
   107  1.0600000000000E+00  3.1536656709068E-01  8.9098548684599E-01
   108  1.0700000000000E+00  2.9652912562160E-01  9.3925329443735E-01
   109  1.0800000000000E+00  2.7822350644652E-01  9.8701604616140E-01
   110  1.0900000000000E+00  2.6046352351636E-01  1.0341016854577E+00
   111  1.1000000000000E+00  2.4326148353604E-01  1.0803329328702E+00
   112  1.1100000000000E+00  2.2662816944413E-01  1.1255284548957E+00
   113  1.1200000000000E+00  2.1057282824915E-01  1.1695041262569E+00
   114  1.1300000000000E+00  1.9510316338397E-01  1.2120743731078E+00
   115  1.1400000000000E+00  1.8022533172237E-01  1.2530535835022E+00
   116  1.1500000000000E+00  1.6594394538358E-01  1.2922575704306E+00
   117  1.1600000000000E+00  1.5226207842966E-01  1.3295050718827E+00
   118  1.1700000000000E+00  1.3918127853827E-01  1.3646192717142E+00
   119  1.1800000000000E+00  1.2670158370949E-01  1.3974293246158E+00
   120  1.1900000000000E+00  1.1482154403937E-01  1.4277718681969E+00
   121  1.2000000000000E+00  1.0353824856627E-01  1.4554925051093E+00
   122  1.2100000000000E+00  9.2847357167881E-02  1.4804472382610E+00
   123  1.2200000000000E+00  8.2743137457489E-02  1.5025038424932E+00
   124  1.2300000000000E+00  7.3218506598463E-02  1.5215431566214E+00
   125  1.2400000000000E+00  6.4265077925373E-02  1.5374602804720E+00
   126  1.2500000000000E+00  5.5873212229520E-02  1.5501656624582E+00
   127  1.2600000000000E+00  4.8032073535942E-02  1.5595860643394E+00
   128  1.2700000000000E+00  4.0729689168419E-02  1.5656653910796E+00
   129  1.2800000000000E+00  3.3953013868991E-02  1.5683653751411E+00
   130  1.2900000000000E+00  2.7687997709319E-02  1.5676661061165E+00
   131  1.3000000000000E+00  2.1919657502846E-02  1.5635663982913E+00
   132  1.3100000000000E+00  1.6632151399889E-02  1.5560839905228E+00
   133  1.3200000000000E+00  1.1808856322405E-02  1.5452555746906E+00
   134  1.3300000000000E+00  7.4324478715239E-03  1.5311366509223E+00
   135  1.3400000000000E+00  3.4849823195284E-03  1.5138012097702E+00
   136  1.3500000000000E+00 -5.2019721290324E-05  1.4933412435106E+00
   137  1.3600000000000E+00 -3.1974883771722E-03  1.4698660907286E+00
   138  1.3700000000000E+00 -5.9707187770861E-03  1.4435016203111E+00
   139  1.3800000000000E+00 -8.3912849519144E-03  1.4143892628781E+00
   140  1.3900000000000E+00 -1.0478953826008E-02  1.3826848995122E+00
   141  1.4000000000000E+00 -1.2253599763351E-02  1.3485576193823E+00
   142  1.4100000000000E+00 -1.3735120132108E-02  1.3121883594771E+00
   143  1.4200000000000E+00 -1.4943352349514E-02  1.2737684411382E+00
   144  1.4300000000000E+00 -1.5897992863777E-02  1.2334980194097E+00
   145  1.4400000000000E+00 -1.6618518521002E-02  1.1915844623690E+00
   146  1.4500000000000E+00 -1.7124110752926E-02  1.1482406785715E+00
   147  1.4600000000000E+00 -1.7433583005696E-02  1.1036834115042E+00
   148  1.4700000000000E+00 -1.7565311811008E-02  1.0581315205004E+00
   149  1.4800000000000E+00 -1.7537171878781E-02  1.0118042679083E+00
   150  1.4900000000000E+00 -1.7366475565223E-02  9.6491963241825E-01
   151  1.5000000000000E+00 -1.7069917041993E-02  9.1769266835239E-01
   152  1.5100000000000E+00 -1.6663521461170E-02  8.7033393038078E-01
   153  1.5200000000000E+00 -1.6162599377183E-02  8.2304798257687E-01
   154  1.5300000000000E+00 -1.5581706651102E-02  7.7603200994880E-01
   155  1.5400000000000E+00 -1.4934610024799E-02  7.2947454960215E-01
   156  1.5500000000000E+00 -1.4234258512943E-02  6.8355435750545E-01
   157  1.5600000000000E+00 -1.3492760719749E-02  6.3843942546045E-01
   158  1.5700000000000E+00 -1.2721368145284E-02  5.9428616133573E-01
   159  1.5800000000000E+00 -1.1930464503226E-02  5.5123874392348E-01
   160  1.5900000000000E+00 -1.1129561028708E-02  5.0942866194374E-01
   161  1.6000000000000E+00 -1.0327297711401E-02  4.6897444476474E-01
   162  1.6100000000000E+00 -9.5314503460652E-03  4.2998159036326E-01
   163  1.6200000000000E+00 -8.7489432502715E-03  3.9254269392390E-01
   164  1.6300000000000E+00 -7.9858674576577E-03  3.5673777830634E-01
   165  1.6400000000000E+00 -7.2475041550994E-03  3.2263482541633E-01
   166  1.6500000000000E+00 -6.5383530938994E-03  2.9029050532053E-01
   167  1.6600000000000E+00 -5.8621656735542E-03  2.5975109891494E-01
   168  1.6700000000000E+00 -5.2219823574443E-03  2.3105360628038E-01
   169  1.6800000000000E+00 -4.6201737924118E-03  2.0422697012111E-01
   170  1.6900000000000E+00 -4.0584867993502E-03  1.7929378138260E-01
   171  1.7000000000000E+00 -3.5380829492644E-03  1.5626956584679E-01
   172  1.7100000000000E+00 -3.0595496867218E-03  1.3515512316806E-01
   173  1.7200000000000E+00 -2.6229213991698E-03  1.1593144577264E-01
   174  1.7300000000000E+00 -2.2277288829661E-03  9.8561403257077E-02
   175  1.7400000000000E+00 -1.8730501585184E-03  8.2991442594929E-02
   176  1.7500000000000E+00 -1.5575626766509E-03  6.9153430399092E-02
   177  1.7600000000000E+00 -1.2795961453498E-03  5.6966550989962E-02
   178  1.7700000000000E+00 -1.0371854542662E-03  4.6339237166800E-02
   179  1.7800000000000E+00 -8.2812319688757E-04  3.7171113617709E-02
   180  1.7900000000000E+00 -6.5001129719467E-04  2.9354931618058E-02
   181  1.8000000000000E+00 -5.0031105882032E-04  2.2778482182069E-02
   182  1.8100000000000E+00 -3.7639346801261E-04  1.7326362019325E-02
   183  1.8200000000000E+00 -2.7557838755240E-04  1.2882089196336E-02
   184  1.8300000000000E+00 -1.9520920191048E-04  9.3282790563327E-03
   185  1.8400000000000E+00 -1.3294144108805E-04  6.5375155663587E-03
   186  1.8500000000000E+00 -8.6340131996360E-05  4.3939194698517E-03
   187  1.8600000000000E+00 -5.2731973072489E-05  2.8018160207084E-03
   188  1.8700000000000E+00 -2.9652501438472E-05  1.6674134925153E-03
   189  1.8800000000000E+00 -1.4820597255430E-05  9.0241574358850E-04
   190  1.8900000000000E+00 -6.1653835432904E-06  4.2468889318137E-04
   191  1.9000000000000E+00 -1.8405558289054E-06  1.5908605491647E-04
   192  1.9100000000000E+00 -2.4069199129848E-07  3.8078140904050E-05
   193  1.9200000000000E+00  2.6704005074310E-08  2.6130079019904E-06
   194  1.9300000000000E+00 -1.0797924713132E-08 -2.5613662916063E-07
   195  1.9400000000000E+00  1.6132022669339E-09  1.2994289934319E-07
   196  1.95  0. -0.
   197  1.96 -0.  0.
   198  1.97 -0.  0.
   199  1.98  0.  0.
   200  1.99  0.  0.
   201  2.00  0.  0.
   202  2.01  0.  0.
   203  2.02  0.  0.
   204  2.03  0.  0.
   205  2.04  0.  0.
   206  2.05  0.  0.
   207  2.06  0.  0.
   208  2.07  0.  0.
   209  2.08  0.  0.
   210  2.09  0.  0.
   211  2.10  0.  0.
   212  2.11  0.  0.
   213  2.12  0.  0.
   214  2.13  0.  0.
   215  2.14  0.  0.
   216  2.15  0.  0.
   217  2.16  0.  0.
   218  2.17  0.  0.
   219  2.18  0.  0.
   220  2.19  0.  0.
   221  2.20  0.  0.
   222  2.21  0.  0.
   223  2.22  0.  0.
   224  2.23  0.  0.
   225  2.24  0.  0.
   226  2.25  0.  0.
   227  2.26  0.  0.
   228  2.27  0.  0.
   229  2.28  0.  0.
   230  2.29  0.  0.
   231  2.30  0.  0.
   232  2.31  0.  0.
   233  2.32  0.  0.
   234  2.33  0.  0.
   235  2.34  0.  0.
   236  2.35  0.  0.
   237  2.36  0.  0.
   238  2.37  0.  0.
   239  2.38  0.  0.
   240  2.39  0.  0.
   241  2.40  0.  0.
   242  2.41  0.  0.
   243  2.42  0.  0.
   244  2.43  0.  0.
   245  2.44  0.  0.
   246  2.45  0.  0.
   247  2.46  0.  0.
   248  2.47  0.  0.
   249  2.48  0.  0.
   250  2.49  0.  0.
   251  2.50  0.  0.
   252  2.51  0.  0.
   253  2.52  0.  0.
   254  2.53  0.  0.
   255  2.54  0.  0.
   256  2.55  0.  0.
   257  2.56  0.  0.
   258  2.57  0.  0.
   259  2.58  0.  0.
   260  2.59  0.  0.
   261  2.60  0.  0.
   262  2.61  0.  0.
   263  2.62  0.  0.
   264  2.63  0.  0.
   265  2.64  0.  0.
   266  2.65  0.  0.
   267  2.66  0.  0.
   268  2.67  0.  0.
   269  2.68  0.  0.
   270  2.69  0.  0.
   271  2.70  0.  0.
   272  2.71  0.  0.
   273  2.72  0.  0.
   274  2.73  0.  0.
   275  2.74  0.  0.
   276  2.75  0.  0.
   277  2.76  0.  0.
   278  2.77  0.  0.
   279  2.78  0.  0.
   280  2.79  0.  0.
   281  2.80  0.  0.
   282  2.81  0.  0.
   283  2.82  0.  0.
   284  2.83  0.  0.
   285  2.84  0.  0.
   286  2.85  0.  0.
   287  2.86  0.  0.
   288  2.87  0.  0.
   289  2.88  0.  0.
   290  2.89  0.  0.
   291  2.90  0.  0.
   292  2.91  0.  0.
   293  2.92  0.  0.
   294  2.93  0.  0.
   295  2.94  0.  0.
   296  2.95  0.  0.
   297  2.96  0.  0.
   298  2.97  0.  0.
   299  2.98  0.  0.
   300  2.99  0.  0.
   301  3.00  0.  0.
   302  3.01  0.  0.
   303  3.02  0.  0.
   304  3.03  0.  0.
   305  3.04  0.  0.
   306  3.05  0.  0.
   307  3.06  0.  0.
   308  3.07  0.  0.
   309  3.08  0.  0.
   310  3.09  0.  0.
   311  3.10  0.  0.
   312  3.11  0.  0.
   313  3.12  0.  0.
   314  3.13  0.  0.
   315  3.14  0.  0.
   316  3.15  0.  0.
   317  3.16  0.  0.
   318  3.17  0.  0.
   319  3.18  0.  0.
   320  3.19  0.  0.
   321  3.20  0.  0.
   322  3.21  0.  0.
   323  3.22  0.  0.
   324  3.23  0.  0.
   325  3.24  0.  0.
   326  3.25  0.  0.
   327  3.26  0.  0.
   328  3.27  0.  0.
   329  3.28  0.  0.
   330  3.29  0.  0.
   331  3.30  0.  0.
   332  3.31  0.  0.
   333  3.32  0.  0.
   334  3.33  0.  0.
   335  3.34  0.  0.
   336  3.35  0.  0.
   337  3.36  0.  0.
   338  3.37  0.  0.
   339  3.38  0.  0.
   340  3.39  0.  0.
   341  3.40  0.  0.
   342  3.41  0.  0.
   343  3.42  0.  0.
   344  3.43  0.  0.
   345  3.44  0.  0.
   346  3.45  0.  0.
   347  3.46  0.  0.
   348  3.47  0.  0.
   349  3.48  0.  0.
   350  3.49  0.  0.
   351  3.50  0.  0.
   352  3.51  0.  0.
   353  3.52  0.  0.
   354  3.53  0.  0.
   355  3.54  0.  0.
   356  3.55  0.  0.
   357  3.56  0.  0.
   358  3.57  0.  0.
   359  3.58  0.  0.
   360  3.59  0.  0.
   361  3.60  0.  0.
   362  3.61  0.  0.
   363  3.62  0.  0.
   364  3.63  0.  0.
   365  3.64  0.  0.
   366  3.65  0.  0.
   367  3.66  0.  0.
   368  3.67  0.  0.
   369  3.68  0.  0.
   370  3.69  0.  0.
   371  3.70  0.  0.
   372  3.71  0.  0.
   373  3.72  0.  0.
   374  3.73  0.  0.
   375  3.74  0.  0.
   376  3.75  0.  0.
   377  3.76  0.  0.
   378  3.77  0.  0.
   379  3.78  0.  0.
   380  3.79  0.  0.
   381  3.80  0.  0.
   382  3.81  0.  0.
   383  3.82  0.  0.
   384  3.83  0.  0.
   385  3.84  0.  0.
   386  3.85  0.  0.
   387  3.86  0.  0.
   388  3.87  0.  0.
   389  3.88  0.  0.
   390  3.89  0.  0.
   391  3.90  0.  0.
   392  3.91  0.  0.
   393  3.92  0.  0.
   394  3.93  0.  0.
   395  3.94  0.  0.
   396  3.95  0.  0.
   397  3.96  0.  0.
   398  3.97  0.  0.
   399  3.98  0.  0.
   400  3.99  0.  0.
   401  4.00  0.  0.
   402  4.01  0.  0.
   403  4.02  0.  0.
   404  4.03  0.  0.
   405  4.04  0.  0.
   406  4.05  0.  0.
   407  4.06  0.  0.
   408  4.07  0.  0.
   409  4.08  0.  0.
   410  4.09  0.  0.
   411  4.10  0.  0.
   412  4.11  0.  0.
   413  4.12  0.  0.
   414  4.13  0.  0.
   415  4.14  0.  0.
   416  4.15  0.  0.
   417  4.16  0.  0.
   418  4.17  0.  0.
   419  4.18  0.  0.
   420  4.19  0.  0.
   421  4.20  0.  0.
   422  4.21  0.  0.
   423  4.22  0.  0.
   424  4.23  0.  0.
   425  4.24  0.  0.
   426  4.25  0.  0.
   427  4.26  0.  0.
   428  4.27  0.  0.
   429  4.28  0.  0.
   430  4.29  0.  0.
   431  4.30  0.  0.
   432  4.31  0.  0.
   433  4.32  0.  0.
   434  4.33  0.  0.
   435  4.34  0.  0.
   436  4.35  0.  0.
   437  4.36  0.  0.
   438  4.37  0.  0.
   439  4.38  0.  0.
   440  4.39  0.  0.
   441  4.40  0.  0.
   442  4.41  0.  0.
   443  4.42  0.  0.
   444  4.43  0.  0.
   445  4.44  0.  0.
   446  4.45  0.  0.
   447  4.46  0.  0.
   448  4.47  0.  0.
   449  4.48  0.  0.
   450  4.49  0.  0.
   451  4.50  0.  0.
   452  4.51  0.  0.
   453  4.52  0.  0.
   454  4.53  0.  0.
   455  4.54  0.  0.
   456  4.55  0.  0.
   457  4.56  0.  0.
   458  4.57  0.  0.
   459  4.58  0.  0.
   460  4.59  0.  0.
   461  4.60  0.  0.
   462  4.61  0.  0.
   463  4.62  0.  0.
   464  4.63  0.  0.
   465  4.64  0.  0.
   466  4.65  0.  0.
   467  4.66  0.  0.
   468  4.67  0.  0.
   469  4.68  0.  0.
   470  4.69  0.  0.
   471  4.70  0.  0.
   472  4.71  0.  0.
   473  4.72  0.  0.
   474  4.73  0.  0.
   475  4.74  0.  0.
   476  4.75  0.  0.
   477  4.76  0.  0.
   478  4.77  0.  0.
   479  4.78  0.  0.
   480  4.79  0.  0.
   481  4.80  0.  0.
   482  4.81  0.  0.
   483  4.82  0.  0.
   484  4.83  0.  0.
   485  4.84  0.  0.
   486  4.85  0.  0.
   487  4.86  0.  0.
   488  4.87  0.  0.
   489  4.88  0.  0.
   490  4.89  0.  0.
   491  4.90  0.  0.
   492  4.91  0.  0.
   493  4.92  0.  0.
   494  4.93  0.  0.
   495  4.94  0.  0.
   496  4.95  0.  0.
   497  4.96  0.  0.
   498  4.97  0.  0.
   499  4.98  0.  0.
   500  4.99  0.  0.
   501  5.00  0.  0.
   502  5.01  0.  0.
   503  5.02  0.  0.
   504  5.03  0.  0.
   505  5.04  0.  0.
   506  5.05  0.  0.
   507  5.06  0.  0.
   508  5.07  0.  0.
   509  5.08  0.  0.
   510  5.09  0.  0.
   511  5.10  0.  0.
   512  5.11  0.  0.
   513  5.12  0.  0.
   514  5.13  0.  0.
   515  5.14  0.  0.
   516  5.15  0.  0.
   517  5.16  0.  0.
   518  5.17  0.  0.
   519  5.18  0.  0.
   520  5.19  0.  0.
   521  5.20  0.  0.
   522  5.21  0.  0.
   523  5.22  0.  0.
   524  5.23  0.  0.
   525  5.24  0.  0.
   526  5.25  0.  0.
   527  5.26  0.  0.
   528  5.27  0.  0.
   529  5.28  0.  0.
   530  5.29  0.  0.
   531  5.30  0.  0.
   532  5.31  0.  0.
   533  5.32  0.  0.
   534  5.33  0.  0.
   535  5.34  0.  0.
   536  5.35  0.  0.
   537  5.36  0.  0.
   538  5.37  0.  0.
   539  5.38  0.  0.
   540  5.39  0.  0.
   541  5.40  0.  0.
   542  5.41  0.  0.
   543  5.42  0.  0.
   544  5.43  0.  0.
   545  5.44  0.  0.
   546  5.45  0.  0.
   547  5.46  0.  0.
   548  5.47  0.  0.
   549  5.48  0.  0.
   550  5.49  0.  0.
   551  5.50  0.  0.
   552  5.51  0.  0.
   553  5.52  0.  0.
   554  5.53  0.  0.
   555  5.54  0.  0.
   556  5.55  0.  0.
   557  5.56  0.  0.
   558  5.57  0.  0.
   559  5.58  0.  0.
   560  5.59  0.  0.
   561  5.60  0.  0.
   562  5.61  0.  0.
   563  5.62  0.  0.
   564  5.63  0.  0.
   565  5.64  0.  0.
   566  5.65  0.  0.
   567  5.66  0.  0.
   568  5.67  0.  0.
   569  5.68  0.  0.
   570  5.69  0.  0.
   571  5.70  0.  0.
   572  5.71  0.  0.
   573  5.72  0.  0.
   574  5.73  0.  0.
   575  5.74  0.  0.
   576  5.75  0.  0.
   577  5.76  0.  0.
   578  5.77  0.  0.
   579  5.78  0.  0.
   580  5.79  0.  0.
   581  5.80  0.  0.
   582  5.81  0.  0.
   583  5.82  0.  0.
   584  5.83  0.  0.
   585  5.84  0.  0.
   586  5.85  0.  0.
   587  5.86  0.  0.
   588  5.87  0.  0.
   589  5.88  0.  0.
   590  5.89  0.  0.
   591  5.90  0.  0.
   592  5.91  0.  0.
   593  5.92  0.  0.
   594  5.93  0.  0.
   595  5.94  0.  0.
   596  5.95  0.  0.
   597  5.96  0.  0.
   598  5.97  0.  0.
   599  5.98  0.  0.
   600  5.99  0.  0.
   1                        -5.9669602199662E+00 -1.8230792842999E+00
     1  0.0000000000000E+00  6.6345316740435E-10 -2.4598290626621E-09
     2  1.0000000000000E-02  1.3214250039039E-03 -1.1733735901682E-03
     3  2.0000000000000E-02  5.2801871775043E-03 -4.6831415900532E-03
     4  3.0000000000000E-02  1.1859783930940E-02 -1.0498353833785E-02
     5  4.0000000000000E-02  2.1032830327657E-02 -1.8567785819998E-02
     6  5.0000000000000E-02  3.2761236869640E-02 -2.8820472569401E-02
     7  6.0000000000000E-02  4.6996455844243E-02 -4.1166446482920E-02
     8  7.0000000000000E-02  6.3679793718897E-02 -5.5497669814999E-02
     9  8.0000000000000E-02  8.2742786406546E-02 -7.1689149916853E-02
    10  9.0000000000000E-02  1.0410763360133E-01 -8.9600223106956E-02
    11  1.0000000000000E-01  1.2768768780854E-01 -1.0907599092184E-01
    12  1.1000000000000E-01  1.5338799317245E-01 -1.2994889061859E-01
    13  1.2000000000000E-01  1.8110586874670E-01 -1.5204038016637E-01
    14  1.3000000000000E-01  2.1073153045982E-01 -1.7516271660029E-01
    15  1.4000000000000E-01  2.4214874570848E-01 -1.9912080553561E-01
    16  1.5000000000000E-01  2.7523551426626E-01 -2.2371409886766E-01
    17  1.6000000000000E-01  3.0986476902913E-01 -2.4873851722346E-01
    18  1.7000000000000E-01  3.4590509003252E-01 -2.7398837359083E-01
    19  1.8000000000000E-01  3.8322142516849E-01 -2.9925827473070E-01
    20  1.9000000000000E-01  4.2167581110567E-01 -3.2434497747623E-01
    21  2.0000000000000E-01  4.6112808806719E-01 -3.4904917782993E-01
    22  2.1000000000000E-01  5.0143660235014E-01 -3.7317721187611E-01
    23  2.2000000000000E-01  5.4245889077113E-01 -3.9654264891440E-01
    24  2.3000000000000E-01  5.8405234159134E-01 -4.1896775887144E-01
    25  2.4000000000000E-01  6.2607482690536E-01 -4.4028483793784E-01
    26  2.5000000000000E-01  6.6838530196569E-01 -4.6033737848044E-01
    27  2.6000000000000E-01  7.1084436745119E-01 -4.7898107156490E-01
    28  2.7000000000000E-01  7.5331479126596E-01 -4.9608463285876E-01
    29  2.8000000000000E-01  7.9566198706638E-01 -5.1153044523684E-01
    30  2.9000000000000E-01  8.3775444735054E-01 -5.2521501404069E-01
    31  3.0000000000000E-01  8.7946412959641E-01 -5.3704923361772E-01
    32  3.1000000000000E-01  9.2066679459402E-01 -5.4695846644307E-01
    33  3.2000000000000E-01  9.6124229677396E-01 -5.5488243877185E-01
    34  3.3000000000000E-01  1.0010748269795E+00 -5.6077495934349E-01
    35  3.4000000000000E-01  1.0400531087554E+00 -5.6460347012634E-01
    36  3.5000000000000E-01  1.0780705498221E+00 -5.6634844041546E-01
    37  3.6000000000000E-01  1.1150253509646E+00 -5.6600261774593E-01
    38  3.7000000000000E-01  1.1508205750792E+00 -5.6357015102791E-01
    39  3.8000000000000E-01  1.1853641795857E+00 -5.5906560301979E-01
    40  3.9000000000000E-01  1.2185690158191E+00 -5.5251287070900E-01
    41  4.0000000000000E-01  1.2503527993564E+00 -5.4394403334380E-01
    42  4.1000000000000E-01  1.2806380555113E+00 -5.3339814873831E-01
    43  4.2000000000000E-01  1.3093520444342E+00 -5.2092001904413E-01
    44  4.3000000000000E-01  1.3364266703857E+00 -5.0655894743581E-01
    45  4.4000000000000E-01  1.3617983798084E+00 -4.9036750709200E-01
    46  4.5000000000000E-01  1.3854080528050E+00 -4.7240034346877E-01
    47  4.6000000000000E-01  1.4072008925345E+00 -4.5271303016181E-01
    48  4.7000000000000E-01  1.4271263168767E+00 -4.3136099765051E-01
    49  4.8000000000000E-01  1.4451378564758E+00 -4.0839855292214E-01
    50  4.9000000000000E-01  1.4611930629755E+00 -3.8387800640838E-01
    51  5.0000000000000E-01  1.4752534308936E+00 -3.5784892084946E-01
    52  5.1000000000000E-01  1.4872843361658E+00 -3.3035749466185E-01
    53  5.2000000000000E-01  1.4972549939220E+00 -3.0144609014953E-01
    54  5.3000000000000E-01  1.5051384375478E+00 -2.7115291450191E-01
    55  5.4000000000000E-01  1.5109115205407E+00 -2.3951185899527E-01
    56  5.5000000000000E-01  1.5145549421013E+00 -2.0655249919688E-01
    57  5.6000000000000E-01  1.5160532968125E+00 -1.7230025629993E-01
    58  5.7000000000000E-01  1.5153951481660E+00 -1.3677671703067E-01
    59  5.8000000000000E-01  1.5125731250988E+00 -1.0000010690760E-01
    60  5.9000000000000E-01  1.5075840401224E+00 -6.1985909033721E-02
    61  6.0000000000000E-01  1.5004290270582E+00 -2.2747618106432E-02
    62  6.1000000000000E-01  1.4911136958586E+00  1.7702383028155E-02
    63  6.2000000000000E-01  1.4796483014901E+00  5.9351839133039E-02
    64  6.3000000000000E-01  1.4660479233994E+00  1.0218754748286E-01
    65  6.4000000000000E-01  1.4503326516770E+00  1.4619421048202E-01
    66  6.5000000000000E-01  1.4325277756868E+00  1.9135323604297E-01
    67  6.6000000000000E-01  1.4126639706439E+00  2.3764150695458E-01
    68  6.7000000000000E-01  1.3907774774121E+00  2.8503014134839E-01
    69  6.8000000000000E-01  1.3669102706482E+00  3.3348326692526E-01
    70  6.9000000000000E-01  1.3411102103544E+00  3.8295683182605E-01
    71  7.0000000000000E-01  1.3134311719129E+00  4.3339747491136E-01
    72  7.1000000000000E-01  1.2839331497662E+00  4.8474147775553E-01
    73  7.2000000000000E-01  1.2526823300759E+00  5.3691381986258E-01
    74  7.3000000000000E-01  1.2197511279359E+00  5.8982735748551E-01
    75  7.4000000000000E-01  1.1852181850382E+00  6.4338214498702E-01
    76  7.5000000000000E-01  1.1491683240773E+00  6.9746491593837E-01
    77  7.6000000000000E-01  1.1116924566357E+00  7.5194873913511E-01
    78  7.7000000000000E-01  1.0728874418097E+00  8.0669286243887E-01
    79  7.8000000000000E-01  1.0328558934053E+00  8.6154275486519E-01
    80  7.9000000000000E-01  9.9170593414817E-01  9.1633035465891E-01
    81  8.0000000000000E-01  9.4955089601182E-01  9.7087452826925E-01
    82  8.1000000000000E-01  9.0650896644746E-01  1.0249817421933E+00
    83  8.2000000000000E-01  8.6270278100942E-01  1.0784469466395E+00
    84  8.3000000000000E-01  8.1825896358455E-01  1.1310546669152E+00
    85  8.4000000000000E-01  7.7330761615354E-01  1.1825802954034E+00
    86  8.5000000000000E-01  7.2798176072171E-01  1.2327915740092E+00
    87  8.6000000000000E-01  6.8241673674897E-01  1.2814502540688E+00
    88  8.7000000000000E-01  6.3674955807243E-01  1.3283139179589E+00
    89  8.8000000000000E-01  5.9111823394173E-01  1.3731379440683E+00
    90  8.9000000000000E-01  5.4566105936746E-01  1.4156775944313E+00
    91  9.0000000000000E-01  5.0051588050903E-01  1.4556902022057E+00
    92  9.1000000000000E-01  4.5581934129108E-01  1.4929374343457E+00
    93  9.2000000000000E-01  4.1170611783197E-01  1.5271876032904E+00
    94  9.3000000000000E-01  3.6830814758598E-01  1.5582180002978E+00
    95  9.4000000000000E-01  3.2575386033887E-01  1.5858172222058E+00
    96  9.5000000000000E-01  2.8416741834966E-01  1.6097874629320E+00
    97  9.6000000000000E-01  2.4366797299701E-01  1.6299467409185E+00
    98  9.7000000000000E-01  2.0436894526475E-01  1.6461310340147E+00
    99  9.8000000000000E-01  1.6637733728713E-01  1.6581962939520E+00
   100  9.9000000000000E-01  1.2979308197066E-01  1.6660203136059E+00
   101  1.0000000000000E+00  9.4708437417927E-02  1.6695044216457E+00
   102  1.0100000000000E+00  6.1207432502458E-02  1.6685749809283E+00
   103  1.0200000000000E+00  2.9365369486237E-02  1.6631846690759E+00
   104  1.0300000000000E+00 -7.5161096179679E-04  1.6533135220690E+00
   105  1.0400000000000E+00 -2.9086897590622E-02  1.6389697243494E+00