Na    ONCVPSP-4.0.1  r_core=   1.46243   2.30420
     11.0000      9.0000      190816    zatom,zion,pspd
     8       2   1     4   600     0    pspcod,pspxc,lmax,lloc,mmax,r2well
  5.99000000  0.00000000  0.00000000    rchrg fchrg qchrg
     2     2     0     0     0    nproj
     1     1           extension_switch
   0                         2.7672447051115E+00 -1.1474610868939E+00
     1  0.0000000000000E+00 -1.2216473388449E-09  1.6226850418910E-10
     2  1.0000000000000E-02  1.3096871982765E-01  2.2741145793643E-02
     3  2.0000000000000E-02  2.6124438765417E-01  4.5560039225227E-02
     4  3.0000000000000E-02  3.9013841962354E-01  6.8533670619033E-02
     5  4.0000000000000E-02  5.1697113392207E-01  9.1737521335951E-02
     6  5.0000000000000E-02  6.4107611649413E-01  1.1524482341035E-01
     7  6.0000000000000E-02  7.6180448526736E-01  1.3912583601389E-01
     8  7.0000000000000E-02  8.7852902050703E-01  1.6344714416407E-01
     9  8.0000000000000E-02  9.9064813014078E-01  1.8827098493291E-01
    10  9.0000000000000E-02  1.0975896203961E+00  2.1365460621050E-01
    11  1.0000000000000E-01  1.1988142438566E+00  2.3964966284071E-01
    12  1.1000000000000E-01  1.2938189990520E+00  2.6630165467283E-01
    13  1.2000000000000E-01  1.3821401579218E+00  2.9364941076694E-01
    14  1.3000000000000E-01  1.4633559999220E+00  3.2172462365263E-01
    15  1.4000000000000E-01  1.5370892341373E+00  3.5055143717426E-01
    16  1.5000000000000E-01  1.6030090934992E+00  3.8014609106303E-01
    17  1.6000000000000E-01  1.6608330880641E+00  4.1051662495965E-01
    18  1.7000000000000E-01  1.7103284072387E+00  4.4166264417473E-01
    19  1.8000000000000E-01  1.7513129638296E+00  4.7357514901954E-01
    20  1.9000000000000E-01  1.7836560758040E+00  5.0623642907206E-01
    21  2.0000000000000E-01  1.8072787846518E+00  5.3962002326391E-01
    22  2.1000000000000E-01  1.8221538122064E+00  5.7369074618837E-01
    23  2.2000000000000E-01  1.8283051606811E+00  6.0840478053997E-01
    24  2.3000000000000E-01  1.8258073634884E+00  6.4370983510702E-01
    25  2.4000000000000E-01  1.8147843970966E+00  6.7954536725309E-01
    26  2.5000000000000E-01  1.7954082667319E+00  7.1584286834535E-01
    27  2.6000000000000E-01  1.7678972811162E+00  7.5252621012076E-01
    28  2.7000000000000E-01  1.7325140336389E+00  7.8951204952922E-01
    29  2.8000000000000E-01  1.6895631093683E+00  8.2671028915813E-01
    30  2.9000000000000E-01  1.6393885391016E+00  8.6402458993076E-01
    31  3.0000000000000E-01  1.5823710232293E+00  9.0135293238271E-01
    32  3.1000000000000E-01  1.5189249495307E+00  9.3858822246066E-01
    33  3.2000000000000E-01  1.4494952301247E+00  9.7561893745834E-01
    34  3.3000000000000E-01  1.3745539836688E+00  1.0123298074082E+00
    35  3.4000000000000E-01  1.2945970895293E+00  1.0486025269871E+00
    36  3.5000000000000E-01  1.2101406410376E+00  1.0843164927713E+00
    37  3.6000000000000E-01  1.1217173251124E+00  1.1193495604932E+00
    38  3.7000000000000E-01  1.0298727554637E+00  1.1535788168096E+00
    39  3.8000000000000E-01  9.3516178631781E-01  1.1868813599926E+00
    40  3.9000000000000E-01  8.3814483312166E-01  1.2191350838971E+00
    41  4.0000000000000E-01  7.3938422600929E-01  1.2502194595458E+00
    42  4.1000000000000E-01  6.3944062096323E-01  1.2800163087036E+00
    43  4.2000000000000E-01  5.3886949258541E-01  1.3084105638893E+00
    44  4.3000000000000E-01  4.3821773122828E-01  1.3352910093874E+00
    45  4.4000000000000E-01  3.3802036593919E-01  1.3605509979851E+00
    46  4.5000000000000E-01  2.3879743325700E-01  1.3840891383584E+00
    47  4.6000000000000E-01  1.4105101038573E-01  1.4058099482715E+00
    48  4.7000000000000E-01  4.5262429671726E-02  1.4256244690299E+00
    49  4.8000000000000E-01 -4.8110310356292E-02  1.4434508369391E+00
    50  4.9000000000000E-01 -1.3863492384501E-01  1.4592148078658E+00
    51  5.0000000000000E-01 -2.2590699459174E-01  1.4728502313677E+00
    52  5.1000000000000E-01 -3.0955190114095E-01  1.4842994712630E+00
    53  5.2000000000000E-01 -3.8922650180196E-01  1.4935137699251E+00
    54  5.3000000000000E-01 -4.6462057318418E-01  1.5004535540358E+00
    55  5.4000000000000E-01 -5.3545799763196E-01  1.5050886799817E+00
    56  5.5000000000000E-01 -6.0149769670667E-01  1.5073986175484E+00
    57  5.6000000000000E-01 -6.6253430959836E-01  1.5073725710409E+00
    58  5.7000000000000E-01 -7.1839861704817E-01  1.5050095374393E+00
    59  5.8000000000000E-01 -7.6895771301477E-01  1.5003183016747E+00
    60  5.9000000000000E-01 -8.1411492792060E-01  1.4933173695840E+00
    61  6.0000000000000E-01 -8.5380950885828E-01  1.4840348395678E+00
    62  6.1000000000000E-01 -8.8801606362058E-01  1.4725082144268E+00
    63  6.2000000000000E-01 -9.1674377683419E-01  1.4587841552884E+00
    64  6.3000000000000E-01 -9.4003540782330E-01  1.4429181799490E+00
    65  6.4000000000000E-01 -9.5796608110073E-01  1.4249743083542E+00
    66  6.5000000000000E-01 -9.7064188157792E-01  1.4050246582994E+00
    67  6.6000000000000E-01 -9.7819826769699E-01  1.3831489947755E+00
    68  6.7000000000000E-01 -9.8079831671476E-01  1.3594342366844E+00
    69  6.8000000000000E-01 -9.7863081730698E-01  1.3339739249231E+00
    70  6.9000000000000E-01 -9.7190822550574E-01  1.3068676560662E+00
    71  7.0000000000000E-01 -9.6086450073337E-01  1.2782204860766E+00
    72  7.1000000000000E-01 -9.4575283934384E-01  1.2481423086282E+00
    73  7.2000000000000E-01 -9.2684332362775E-01  1.2167472127449E+00
    74  7.3000000000000E-01 -9.0442050467250E-01  1.1841528245364E+00
    75  7.4000000000000E-01 -8.7878093779164E-01  1.1504796378486E+00
    76  7.5000000000000E-01 -8.5023068944280E-01  1.1158503386441E+00
    77  7.6000000000000E-01 -8.1908283463752E-01  1.0803891278860E+00
    78  7.7000000000000E-01 -7.8565496380427E-01  1.0442210476167E+00
    79  7.8000000000000E-01 -7.5026671789553E-01  1.0074713148094E+00
    80  7.9000000000000E-01 -7.1323737022687E-01  9.7026466741288E-01
    81  8.0000000000000E-01 -6.7488347309848E-01  9.3272472682903E-01
    82  8.1000000000000E-01 -6.3551658667599E-01  8.9497338084459E-01
    83  8.2000000000000E-01 -5.9544110689666E-01  8.5713019079323E-01
    84  8.3000000000000E-01 -5.5495220831994E-01  8.1931182645597E-01
    85  8.4000000000000E-01 -5.1433391685910E-01  7.8163153191451E-01
    86  8.5000000000000E-01 -4.7385732621623E-01  7.4419862526085E-01
    87  8.6000000000000E-01 -4.3377897060183E-01  7.0711803473865E-01
    88  8.7000000000000E-01 -3.9433936495608E-01  6.7048987355161E-01
    89  8.8000000000000E-01 -3.5576172241272E-01  6.3440905522438E-01
    90  8.9000000000000E-01 -3.1825085716457E-01  5.9896495104569E-01
    91  9.0000000000000E-01 -2.8199227921466E-01  5.6424109076559E-01
    92  9.1000000000000E-01 -2.4715148574182E-01  5.3031490736083E-01
    93  9.2000000000000E-01 -2.1387345198720E-01  4.9725752632954E-01
    94  9.3000000000000E-01 -1.8228232269563E-01  4.6513359962951E-01
    95  9.4000000000000E-01 -1.5248130324038E-01  4.3400118403867E-01
    96  9.5000000000000E-01 -1.2455274763884E-01  4.0391166339249E-01
    97  9.6000000000000E-01 -9.8558438750970E-02  3.7490971384527E-01
    98  9.7000000000000E-01 -7.4540054061875E-02  3.4703331101183E-01
    99  9.8000000000000E-01 -5.2519808605189E-02  3.2031377757550E-01
   100  9.9000000000000E-01 -3.2501264806678E-02  2.9477586969953E-01
   101  1.0000000000000E+00 -1.4470297338678E-02  2.7043790035313E-01
   102  1.0100000000000E+00  1.6038005023833E-03  2.4731189746205E-01
   103  1.0200000000000E+00  1.5767083833046E-02  2.2540379461775E-01
   104  1.0300000000000E+00  2.8079612871681E-02  2.0471365192926E-01
   105  1.0400000000000E+00  3.8614016648496E-02  1.8523590447876E-01
   106  1.0500000000000E+00  4.7453982055041E-02  1.6695963574475E-01
   107  1.0600000000000E+00  5.4692687301440E-02  1.4986887328714E-01
   108  1.0700000000000E+00  6.0431199388169E-02  1.3394290394363E-01
   109  1.0800000000000E+00  6.4776855518017E-02  1.1915660576863E-01
   110  1.0900000000000E+00  6.7841648463046E-02  1.0548079395115E-01
   111  1.1000000000000E+00  6.9740635759011E-02  9.2882577977274E-02
   112  1.1100000000000E+00  7.0590392222061E-02  8.1325727353969E-02
   113  1.1200000000000E+00  7.0507524674626E-02  7.0771043282057E-02
   114  1.1300000000000E+00  6.9607266928336E-02  6.1176733757202E-02
   115  1.1400000000000E+00  6.8002172019263E-02  5.2498789684529E-02
   116  1.1500000000000E+00  6.5800917422521E-02  4.4691359715798E-02
   117  1.1600000000000E+00  6.3107237520763E-02  3.7707121653305E-02
   118  1.1700000000000E+00  6.0018995962541E-02  3.1497648412227E-02
   119  1.1800000000000E+00  5.6627408761145E-02  2.6013766688934E-02
   120  1.1900000000000E+00  5.3016427058717E-02  2.1205906646178E-02
   121  1.2000000000000E+00  4.9262286448419E-02  1.7024441094302E-02
   122  1.2100000000000E+00  4.5433227637841E-02  1.3420012818466E-02
   123  1.2200000000000E+00  4.1589391061112E-02  1.0343848874678E-02
   124  1.2300000000000E+00  3.7782885865822E-02  7.7480608478384E-03
   125  1.2400000000000E+00  3.4058031505179E-02  5.5859302343846E-03
   126  1.2500000000000E+00  3.0451768018890E-02  3.8121782759112E-03
   127  1.2600000000000E+00  2.6994229005297E-02  2.3832197281712E-03
   128  1.2700000000000E+00  2.3709469289679E-02  1.2574002012975E-03
   129  1.2800000000000E+00  2.0616337433694E-02  3.9521684871884E-04
   130  1.2900000000000E+00  1.7729481540841E-02 -2.4047768198660E-04
   131  1.3000000000000E+00  1.5060476747076E-02 -6.8428781999498E-04
   132  1.3100000000000E+00  1.2619039937311E-02 -9.6810653960939E-04
   133  1.3200000000000E+00  1.0414334247306E-02 -1.1209633573652E-03
   134  1.3300000000000E+00  8.4536555132624E-03 -1.1692280181930E-03
   135  1.3400000000000E+00  6.7386045493299E-03 -1.1371006869216E-03
   136  1.3500000000000E+00  5.2647916541032E-03 -1.0466098467622E-03
   137  1.3600000000000E+00  4.0227034695228E-03 -9.1747332414510E-04
   138  1.3700000000000E+00  2.9985423254508E-03 -7.6697996285387E-04
   139  1.3800000000000E+00  2.1750847295975E-03 -6.0988821536805E-04
   140  1.3900000000000E+00  1.5320390753867E-03 -4.5833056570055E-04
   141  1.4000000000000E+00  1.0328993265136E-03 -3.2174234946267E-04
   142  1.4100000000000E+00  6.5031320259156E-04 -2.0700211128208E-04
   143  1.4200000000000E+00  3.7292688173280E-04 -1.1818298486922E-04
   144  1.4300000000000E+00  1.8606080977003E-04 -5.6371706556940E-05
   145  1.4400000000000E+00  7.3487640541842E-05 -1.9713895045778E-05
   146  1.4500000000000E+00  1.7648054195500E-05 -3.4761383744824E-06
   147  1.4600000000000E+00  7.3869307770288E-07 -1.9182280966708E-08
   148  1.4700000000000E+00 -7.2221437841177E-08 -7.4852361814362E-09
   149  1.4800000000000E+00  7.8993718902853E-10 -3.4178184865878E-11
   150  1.49  0.  0.
   151  1.50  0.  0.
   152  1.51  0.  0.
   153  1.52  0.  0.
   154  1.53  0.  0.
   155  1.54  0.  0.
   156  1.55  0.  0.
   157  1.56  0.  0.
   158  1.57  0.  0.
   159  1.58  0.  0.
   160  1.59  0.  0.
   161  1.60  0.  0.
   162  1.61  0.  0.
   163  1.62  0.  0.
   164  1.63  0.  0.
   165  1.64  0.  0.
   166  1.65  0.  0.
   167  1.66  0.  0.
   168  1.67  0.  0.
   169  1.68  0.  0.
   170  1.69  0.  0.
   171  1.70  0.  0.
   172  1.71  0.  0.
   173  1.72  0.  0.
   174  1.73  0.  0.
   175  1.74  0.  0.
   176  1.75  0.  0.
   177  1.76  0.  0.
   178  1.77  0.  0.
   179  1.78  0.  0.
   180  1.79  0.  0.
   181  1.80  0.  0.
   182  1.81  0.  0.
   183  1.82  0.  0.
   184  1.83  0.  0.
   185  1.84  0.  0.
   186  1.85  0.  0.
   187  1.86  0.  0.
   188  1.87  0.  0.
   189  1.88  0.  0.
   190  1.89  0.  0.
   191  1.90  0.  0.
   192  1.91  0.  0.
   193  1.92  0.  0.
   194  1.93  0.  0.
   195  1.94  0.  0.
   196  1.95  0.  0.
   197  1.96  0.  0.
   198  1.97  0.  0.
   199  1.98  0.  0.
   200  1.99  0.  0.
   201  2.00  0.  0.
   202  2.01  0.  0.
   203  2.02  0.  0.
   204  2.03  0.  0.
   205  2.04  0.  0.
   206  2.05  0.  0.
   207  2.06  0.  0.
   208  2.07  0.  0.
   209  2.08  0.  0.
   210  2.09  0.  0.
   211  2.10  0.  0.
   212  2.11  0.  0.
   213  2.12  0.  0.
   214  2.13  0.  0.
   215  2.14  0.  0.
   216  2.15  0.  0.
   217  2.16  0.  0.
   218  2.17  0.  0.
   219  2.18  0.  0.
   220  2.19  0.  0.
   221  2.20  0.  0.
   222  2.21  0.  0.
   223  2.22  0.  0.
   224  2.23  0.  0.
   225  2.24  0.  0.
   226  2.25  0.  0.
   227  2.26  0.  0.
   228  2.27  0.  0.
   229  2.28  0.  0.
   230  2.29  0.  0.
   231  2.30  0.  0.
   232  2.31  0.  0.
   233  2.32  0.  0.
   234  2.33  0.  0.
   235  2.34  0.  0.
   236  2.35  0.  0.
   237  2.36  0.  0.
   238  2.37  0.  0.
   239  2.38  0.  0.
   240  2.39  0.  0.
   241  2.40  0.  0.
   242  2.41  0.  0.
   243  2.42  0.  0.
   244  2.43  0.  0.
   245  2.44  0.  0.
   246  2.45  0.  0.
   247  2.46  0.  0.
   248  2.47  0.  0.
   249  2.48  0.  0.
   250  2.49  0.  0.
   251  2.50  0.  0.
   252  2.51  0.  0.
   253  2.52  0.  0.
   254  2.53  0.  0.
   255  2.54  0.  0.
   256  2.55  0.  0.
   257  2.56  0.  0.
   258  2.57  0.  0.
   259  2.58  0.  0.
   260  2.59  0.  0.
   261  2.60  0.  0.
   262  2.61  0.  0.
   263  2.62  0.  0.
   264  2.63  0.  0.
   265  2.64  0.  0.
   266  2.65  0.  0.
   267  2.66  0.  0.
   268  2.67  0.  0.
   269  2.68  0.  0.
   270  2.69  0.  0.
   271  2.70  0.  0.
   272  2.71  0.  0.
   273  2.72  0.  0.
   274  2.73  0.  0.
   275  2.74  0.  0.
   276  2.75  0.  0.
   277  2.76  0.  0.
   278  2.77  0.  0.
   279  2.78  0.  0.
   280  2.79  0.  0.
   281  2.80  0.  0.
   282  2.81  0.  0.
   283  2.82  0.  0.
   284  2.83  0.  0.
   285  2.84  0.  0.
   286  2.85  0.  0.
   287  2.86  0.  0.
   288  2.87  0.  0.
   289  2.88  0.  0.
   290  2.89  0.  0.
   291  2.90  0.  0.
   292  2.91  0.  0.
   293  2.92  0.  0.
   294  2.93  0.  0.
   295  2.94  0.  0.
   296  2.95  0.  0.
   297  2.96  0.  0.
   298  2.97  0.  0.
   299  2.98  0.  0.
   300  2.99  0.  0.
   301  3.00  0.  0.
   302  3.01  0.  0.
   303  3.02  0.  0.
   304  3.03  0.  0.
   305  3.04  0.  0.
   306  3.05  0.  0.
   307  3.06  0.  0.
   308  3.07  0.  0.
   309  3.08  0.  0.
   310  3.09  0.  0.
   311  3.10  0.  0.
   312  3.11  0.  0.
   313  3.12  0.  0.
   314  3.13  0.  0.
   315  3.14  0.  0.
   316  3.15  0.  0.
   317  3.16  0.  0.
   318  3.17  0.  0.
   319  3.18  0.  0.
   320  3.19  0.  0.
   321  3.20  0.  0.
   322  3.21  0.  0.
   323  3.22  0.  0.
   324  3.23  0.  0.
   325  3.24  0.  0.
   326  3.25  0.  0.
   327  3.26  0.  0.
   328  3.27  0.  0.
   329  3.28  0.  0.
   330  3.29  0.  0.
   331  3.30  0.  0.
   332  3.31  0.  0.
   333  3.32  0.  0.
   334  3.33  0.  0.
   335  3.34  0.  0.
   336  3.35  0.  0.
   337  3.36  0.  0.
   338  3.37  0.  0.
   339  3.38  0.  0.
   340  3.39  0.  0.
   341  3.40  0.  0.
   342  3.41  0.  0.
   343  3.42  0.  0.
   344  3.43  0.  0.
   345  3.44  0.  0.
   346  3.45  0.  0.
   347  3.46  0.  0.
   348  3.47  0.  0.
   349  3.48  0.  0.
   350  3.49  0.  0.
   351  3.50  0.  0.
   352  3.51  0.  0.
   353  3.52  0.  0.
   354  3.53  0.  0.
   355  3.54  0.  0.
   356  3.55  0.  0.
   357  3.56  0.  0.
   358  3.57  0.  0.
   359  3.58  0.  0.
   360  3.59  0.  0.
   361  3.60  0.  0.
   362  3.61  0.  0.
   363  3.62  0.  0.
   364  3.63  0.  0.
   365  3.64  0.  0.
   366  3.65  0.  0.
   367  3.66  0.  0.
   368  3.67  0.  0.
   369  3.68  0.  0.
   370  3.69  0.  0.
   371  3.70  0.  0.
   372  3.71  0.  0.
   373  3.72  0.  0.
   374  3.73  0.  0.
   375  3.74  0.  0.
   376  3.75  0.  0.
   377  3.76  0.  0.
   378  3.77  0.  0.
   379  3.78  0.  0.
   380  3.79  0.  0.
   381  3.80  0.  0.
   382  3.81  0.  0.
   383  3.82  0.  0.
   384  3.83  0.  0.
   385  3.84  0.  0.
   386  3.85  0.  0.
   387  3.86  0.  0.
   388  3.87  0.  0.
   389  3.88  0.  0.
   390  3.89  0.  0.
   391  3.90  0.  0.
   392  3.91  0.  0.
   393  3.92  0.  0.
   394  3.93  0.  0.
   395  3.94  0.  0.
   396  3.95  0.  0.
   397  3.96  0.  0.
   398  3.97  0.  0.
   399  3.98  0.  0.
   400  3.99  0.  0.
   401  4.00  0.  0.
   402  4.01  0.  0.
   403  4.02  0.  0.
   404  4.03  0.  0.
   405  4.04  0.  0.
   406  4.05  0.  0.
   407  4.06  0.  0.
   408  4.07  0.  0.
   409  4.08  0.  0.
   410  4.09  0.  0.
   411  4.10  0.  0.
   412  4.11  0.  0.
   413  4.12  0.  0.
   414  4.13  0.  0.
   415  4.14  0.  0.
   416  4.15  0.  0.
   417  4.16  0.  0.
   418  4.17  0.  0.
   419  4.18  0.  0.
   420  4.19  0.  0.
   421  4.20  0.  0.
   422  4.21  0.  0.
   423  4.22  0.  0.
   424  4.23  0.  0.
   425  4.24  0.  0.
   426  4.25  0.  0.
   427  4.26  0.  0.
   428  4.27  0.  0.
   429  4.28  0.  0.
   430  4.29  0.  0.
   431  4.30  0.  0.
   432  4.31  0.  0.
   433  4.32  0.  0.
   434  4.33  0.  0.
   435  4.34  0.  0.
   436  4.35  0.  0.
   437  4.36  0.  0.
   438  4.37  0.  0.
   439  4.38  0.  0.
   440  4.39  0.  0.
   441  4.40  0.  0.
   442  4.41  0.  0.
   443  4.42  0.  0.
   444  4.43  0.  0.
   445  4.44  0.  0.
   446  4.45  0.  0.
   447  4.46  0.  0.
   448  4.47  0.  0.
   449  4.48  0.  0.
   450  4.49  0.  0.
   451  4.50  0.  0.
   452  4.51  0.  0.
   453  4.52  0.  0.
   454  4.53  0.  0.
   455  4.54  0.  0.
   456  4.55  0.  0.
   457  4.56  0.  0.
   458  4.57  0.  0.
   459  4.58  0.  0.
   460  4.59  0.  0.
   461  4.60  0.  0.
   462  4.61  0.  0.
   463  4.62  0.  0.
   464  4.63  0.  0.
   465  4.64  0.  0.
   466  4.65  0.  0.
   467  4.66  0.  0.
   468  4.67  0.  0.
   469  4.68  0.  0.
   470  4.69  0.  0.
   471  4.70  0.  0.
   472  4.71  0.  0.
   473  4.72  0.  0.
   474  4.73  0.  0.
   475  4.74  0.  0.
   476  4.75  0.  0.
   477  4.76  0.  0.
   478  4.77  0.  0.
   479  4.78  0.  0.
   480  4.79  0.  0.
   481  4.80  0.  0.
   482  4.81  0.  0.
   483  4.82  0.  0.
   484  4.83  0.  0.
   485  4.84  0.  0.
   486  4.85  0.  0.
   487  4.86  0.  0.
   488  4.87  0.  0.
   489  4.88  0.  0.
   490  4.89  0.  0.
   491  4.90  0.  0.
   492  4.91  0.  0.
   493  4.92  0.  0.
   494  4.93  0.  0.
   495  4.94  0.  0.
   496  4.95  0.  0.
   497  4.96  0.  0.
   498  4.97  0.  0.
   499  4.98  0.  0.
   500  4.99  0.  0.
   501  5.00  0.  0.
   502  5.01  0.  0.
   503  5.02  0.  0.
   504  5.03  0.  0.
   505  5.04  0.  0.
   506  5.05  0.  0.
   507  5.06  0.  0.
   508  5.07  0.  0.
   509  5.08  0.  0.
   510  5.09  0.  0.
   511  5.10  0.  0.
   512  5.11  0.  0.
   513  5.12  0.  0.
   514  5.13  0.  0.
   515  5.14  0.  0.
   516  5.15  0.  0.
   517  5.16  0.  0.
   518  5.17  0.  0.
   519  5.18  0.  0.
   520  5.19  0.  0.
   521  5.20  0.  0.
   522  5.21  0.  0.
   523  5.22  0.  0.
   524  5.23  0.  0.
   525  5.24  0.  0.
   526  5.25  0.  0.
   527  5.26  0.  0.
   528  5.27  0.  0.
   529  5.28  0.  0.
   530  5.29  0.  0.
   531  5.30  0.  0.
   532  5.31  0.  0.
   533  5.32  0.  0.
   534  5.33  0.  0.
   535  5.34  0.  0.
   536  5.35  0.  0.
   537  5.36  0.  0.
   538  5.37  0.  0.
   539  5.38  0.  0.
   540  5.39  0.  0.
   541  5.40  0.  0.
   542  5.41  0.  0.
   543  5.42  0.  0.
   544  5.43  0.  0.
   545  5.44  0.  0.
   546  5.45  0.  0.
   547  5.46  0.  0.
   548  5.47  0.  0.
   549  5.48  0.  0.
   550  5.49  0.  0.
   551  5.50  0.  0.
   552  5.51  0.  0.
   553  5.52  0.  0.
   554  5.53  0.  0.
   555  5.54  0.  0.
   556  5.55  0.  0.
   557  5.56  0.  0.
   558  5.57  0.  0.
   559  5.58  0.  0.
   560  5.59  0.  0.
   561  5.60  0.  0.
   562  5.61  0.  0.
   563  5.62  0.  0.
   564  5.63  0.  0.
   565  5.64  0.  0.
   566  5.65  0.  0.
   567  5.66  0.  0.
   568  5.67  0.  0.
   569  5.68  0.  0.
   570  5.69  0.  0.
   571  5.70  0.  0.
   572  5.71  0.  0.
   573  5.72  0.  0.
   574  5.73  0.  0.
   575  5.74  0.  0.
   576  5.75  0.  0.
   577  5.76  0.  0.
   578  5.77  0.  0.
   579  5.78  0.  0.
   580  5.79  0.  0.
   581  5.80  0.  0.
   582  5.81  0.  0.
   583  5.82  0.  0.
   584  5.83  0.  0.
   585  5.84  0.  0.
   586  5.85  0.  0.
   587  5.86  0.  0.
   588  5.87  0.  0.
   589  5.88  0.  0.
   590  5.89  0.  0.
   591  5.90  0.  0.
   592  5.91  0.  0.
   593  5.92  0.  0.
   594  5.93  0.  0.
   595  5.94  0.  0.
   596  5.95  0.  0.
   597  5.96  0.  0.
   598  5.97  0.  0.
   599  5.98  0.  0.
   600  5.99  0.  0.
   1                        -3.7283083377262E+00 -1.5202443502460E+00
     1  0.0000000000000E+00  1.2729289150526E-10 -2.7789839526782E-10
     2  1.0000000000000E-02  8.7621936805688E-04 -4.5785047270278E-04
     3  2.0000000000000E-02  3.5024306293105E-03 -1.8284250023272E-03
     4  3.0000000000000E-02  7.8713031684547E-03 -4.1028118482411E-03
     5  4.0000000000000E-02  1.3970652269756E-02 -7.2662210429091E-03
     6  5.0000000000000E-02  2.1783488343076E-02 -1.1298078271264E-02
     7  6.0000000000000E-02  3.1288085365102E-02 -1.6172155264610E-02
     8  7.0000000000000E-02  4.2458068065678E-02 -2.1856735682784E-02
     9  8.0000000000000E-02  5.5262517261826E-02 -2.8314815180393E-02
    10  9.0000000000000E-02  6.9666092620147E-02 -3.5504334086485E-02
    11  1.0000000000000E-01  8.5629172012607E-02 -4.3378440874307E-02
    12  1.1000000000000E-01  1.0310800652242E-01 -5.1885784360855E-02
    13  1.2000000000000E-01  1.2205489005670E-01 -6.0970832357025E-02
    14  1.3000000000000E-01  1.4241834243164E-01 -7.0574214290168E-02
    15  1.4000000000000E-01  1.6414330471516E-01 -8.0633085143313E-02
    16  1.5000000000000E-01  1.8717134554150E-01 -9.1081507901150E-02
    17  1.6000000000000E-01  2.1144087705338E-01 -1.0185085156292E-01
    18  1.7000000000000E-01  2.3688737907991E-01 -1.1287020167823E-01
    19  1.8000000000000E-01  2.6344363012355E-01 -1.2406678028415E-01
    20  1.9000000000000E-01  2.9103994370634E-01 -1.3536637207133E-01
    21  2.0000000000000E-01  3.1960440861608E-01 -1.4669375358410E-01
    22  2.1000000000000E-01  3.4906313159523E-01 -1.5797312226421E-01
    23  2.2000000000000E-01  3.7934048103087E-01 -1.6912852218068E-01
    24  2.3000000000000E-01  4.1035933023155E-01 -1.8008426334790E-01
    25  2.4000000000000E-01  4.4204129891675E-01 -1.9076533162123E-01
    26  2.5000000000000E-01  4.7430699159593E-01 -2.0109778627181E-01
    27  2.6000000000000E-01  5.0707623157749E-01 -2.1100914248048E-01
    28  2.7000000000000E-01  5.4026828942051E-01 -2.2042873615179E-01
    29  2.8000000000000E-01  5.7380210472617E-01 -2.2928806863311E-01
    30  2.9000000000000E-01  6.0759650025741E-01 -2.3752112912790E-01
    31  3.0000000000000E-01  6.4157038747632E-01 -2.4506469281513E-01
    32  3.1000000000000E-01  6.7564296269597E-01 -2.5185859292631E-01
    33  3.2000000000000E-01  7.0973389315741E-01 -2.5784596528527E-01
    34  3.3000000000000E-01  7.4376349246112E-01 -2.6297346408193E-01
    35  3.4000000000000E-01  7.7765288490483E-01 -2.6719144792617E-01
    36  3.5000000000000E-01  8.1132415840455E-01 -2.7045413551076E-01
    37  3.6000000000000E-01  8.4470050580248E-01 -2.7271973049845E-01
    38  3.7000000000000E-01  8.7770635449160E-01 -2.7395051553689E-01
    39  3.8000000000000E-01  9.1026748441262E-01 -2.7411291559203E-01
    40  3.9000000000000E-01  9.4231113460141E-01 -2.7317753107410E-01
    41  4.0000000000000E-01  9.7376609858464E-01 -2.7111914150687E-01
    42  4.1000000000000E-01  1.0045628090355E+00 -2.6791668075912E-01
    43  4.2000000000000E-01  1.0346334122095E+00 -2.6355318511249E-01
    44  4.3000000000000E-01  1.0639118327813E+00 -2.5801571568228E-01
    45  4.4000000000000E-01  1.0923338297969E+00 -2.5129525693280E-01
    46  4.5000000000000E-01  1.1198370445368E+00 -2.4338659323531E-01
    47  4.6000000000000E-01  1.1463610411614E+00 -2.3428816560249E-01
    48  4.7000000000000E-01  1.1718473410708E+00 -2.2400191089648E-01
    49  4.8000000000000E-01  1.1962394519610E+00 -2.1253308594638E-01
    50  4.9000000000000E-01  1.2194828925967E+00 -1.9989007912431E-01
    51  5.0000000000000E-01  1.2415252143476E+00 -1.8608421201558E-01
    52  5.1000000000000E-01  1.2623160205454E+00 -1.7112953387694E-01
    53  5.2000000000000E-01  1.2818069847170E+00 -1.5504261160728E-01
    54  5.3000000000000E-01  1.2999518687369E+00 -1.3784231795614E-01
    55  5.4000000000000E-01  1.3167065419105E+00 -1.1954962066814E-01
    56  5.5000000000000E-01  1.3320290019601E+00 -1.0018737520485E-01
    57  5.6000000000000E-01  1.3458793988318E+00 -7.9780123600984E-02
    58  5.7000000000000E-01  1.3582200621703E+00 -5.8353901899618E-02
    59  5.8000000000000E-01  1.3690155332354E+00 -3.5936058472325E-02
    60  5.9000000000000E-01  1.3782326019383E+00 -1.2555085365987E-02
    61  6.0000000000000E-01  1.3858403495794E+00  1.1759535369607E-02
    62  6.1000000000000E-01  1.3918101977562E+00  3.6977468629124E-02
    63  6.2000000000000E-01  1.3961159637939E+00  6.3067644959194E-02
    64  6.3000000000000E-01  1.3987339229249E+00  8.9998359758697E-02
    65  6.4000000000000E-01  1.3996428773115E+00  1.1773735196667E-01
    66  6.5000000000000E-01  1.3988242318709E+00  1.4625186150801E-01
    67  6.6000000000000E-01  1.3962620767236E+00  1.7550866505173E-01
    68  6.7000000000000E-01  1.3919432759425E+00  2.0547408992856E-01
    69  6.8000000000000E-01  1.3858575621429E+00  2.3611400635025E-01
    70  6.9000000000000E-01  1.3779976363114E+00  2.6739379836945E-01
    71  7.0000000000000E-01  1.3683592721364E+00  2.9927831431366E-01
    72  7.1000000000000E-01  1.3569414239707E+00  3.3173179771531E-01
    73  7.2000000000000E-01  1.3437463374297E+00  3.6471780004074E-01
    74  7.3000000000000E-01  1.3287796615126E+00  3.9819907678991E-01
    75  7.4000000000000E-01  1.3120505610208E+00  4.3213746879281E-01
    76  7.5000000000000E-01  1.2935718279520E+00  4.6649377076617E-01
    77  7.6000000000000E-01  1.2733599904574E+00  5.0122758941055E-01
    78  7.7000000000000E-01  1.2514354178789E+00  5.3629719352305E-01
    79  7.8000000000000E-01  1.2278224203170E+00  5.7165935876975E-01
    80  7.9000000000000E-01  1.2025493411393E+00  6.0726920990505E-01
    81  8.0000000000000E-01  1.1756486408056E+00  6.4308006333808E-01
    82  8.1000000000000E-01  1.1471569703741E+00  6.7904327302969E-01
    83  8.2000000000000E-01  1.1171152330550E+00  7.1510808275449E-01
    84  8.3000000000000E-01  1.0855686322009E+00  7.5122148778055E-01
    85  8.4000000000000E-01  1.0525667041583E+00  7.8732810900428E-01
    86  8.5000000000000E-01  1.0181633344650E+00  8.2337008252850E-01
    87  8.6000000000000E-01  9.8241675594756E-01  8.5928696758870E-01
    88  8.7000000000000E-01  9.4538952736884E-01  8.9501567561565E-01
    89  8.8000000000000E-01  9.0714849137882E-01  9.3049042307284E-01
    90  8.9000000000000E-01  8.6776471065010E-01  9.6564271052550E-01
    91  9.0000000000000E-01  8.2731338121642E-01  1.0004013301860E+00
    92  9.1000000000000E-01  7.8587372218791E-01  1.0346924039391E+00
    93  9.2000000000000E-01  7.4352884118332E-01  1.0684394535826E+00
    94  9.3000000000000E-01  7.0036557499882E-01  1.1015635047274E+00
    95  9.4000000000000E-01  6.5647430522261E-01  1.1339832254844E+00
    96  9.5000000000000E-01  6.1194874870319E-01  1.1656151007346E+00
    97  9.6000000000000E-01  5.6688572298470E-01  1.1963736424273E+00
    98  9.7000000000000E-01  5.2138488703439E-01  1.2261716359903E+00
    99  9.8000000000000E-01  4.7554845780173E-01  1.2549204225620E+00
   100  9.9000000000000E-01  4.2948090336522E-01  1.2825302163813E+00
   101  1.0000000000000E+00  3.8328861363924E-01  1.3089104562886E+00
   102  1.0100000000000E+00  3.3707954982648E-01  1.3339701899157E+00
   103  1.0200000000000E+00  2.9096287401111E-01  1.3576184887693E+00
   104  1.0300000000000E+00  2.4504856049016E-01  1.3797648920509E+00
   105  1.0400000000000E+00  1.9944699063504E-01  1.4003198767072E+00
   106  1.0500000000000E+00  1.5426853325851E-01  1.4191953508715E+00
   107  1.0600000000000E+00  1.0962311263387E-01  1.4363051675462E+00
   108  1.0700000000000E+00  6.5619766470193E-02  1.4515656550884E+00
   109  1.0800000000000E+00  2.2366196288306E-02  1.4648961608003E+00
   110  1.0900000000000E+00 -2.0031687233822E-02  1.4762196036959E+00
   111  1.1000000000000E+00 -6.1470221273349E-02  1.4854630323193E+00
   112  1.1100000000000E+00 -1.0184844747501E-01  1.4925581833264E+00
   113  1.1200000000000E+00 -1.4106856534345E-01  1.4974420364221E+00
   114  1.1300000000000E+00 -1.7903637955467E-01  1.5000573611549E+00
   115  1.1400000000000E+00 -2.1566173830813E-01  1.5003532510351E+00
   116  1.1500000000000E+00 -2.5085895984768E-01  1.4982856404348E+00
   117  1.1600000000000E+00 -2.8454724430939E-01  1.4938177997739E+00
   118  1.1700000000000E+00 -3.1665106810896E-01  1.4869208045804E+00
   119  1.1800000000000E+00 -3.4710055815964E-01  1.4775739741392E+00
   120  1.1900000000000E+00 -3.7583184331384E-01  1.4657652756159E+00
   121  1.2000000000000E+00 -4.0278738054682E-01  1.4514916897512E+00
   122  1.2100000000000E+00 -4.2791625354828E-01  1.4347595344751E+00
   123  1.2200000000000E+00 -4.5117444155727E-01  1.4155847430769E+00
   124  1.2300000000000E+00 -4.7252505646433E-01  1.3939930938944E+00
   125  1.2400000000000E+00 -4.9193854641343E-01  1.3700203888424E+00
   126  1.2500000000000E+00 -5.0939286436160E-01  1.3437125784918E+00
   127  1.2600000000000E+00 -5.2487360029402E-01  1.3151258318243E+00
   128  1.2700000000000E+00 -5.3837407604806E-01  1.2843265492293E+00
   129  1.2800000000000E+00 -5.4989540196465E-01  1.2513913177678E+00
   130  1.2900000000000E+00 -5.5944649486179E-01  1.2164068082114E+00
   131  1.3000000000000E+00 -5.6704405720166E-01  1.1794696142026E+00
   132  1.3100000000000E+00 -5.7271251627660E-01  1.1406860291863E+00
   133  1.3200000000000E+00 -5.7648392494165E-01  1.1001717663824E+00
   134  1.3300000000000E+00 -5.7839765834512E-01  1.0580509723476E+00
   135  1.3400000000000E+00 -5.7849989681285E-01  1.0144545983362E+00
   136  1.3500000000000E+00 -5.7684326667990E-01  9.6951960866465E-01
   137  1.3600000000000E+00 -5.7348651622121E-01  9.2338842523727E-01