Mo    ONCVPSP-3.3.1  r_core=   2.31752   2.51934   2.58017
     42.0000     14.0000      190405    zatom,zion,pspd
     8       2   2     4   600     0    pspcod,pspxc,lmax,lloc,mmax,r2well
  5.99000000  0.00000000  0.00000000    rchrg fchrg qchrg
     2     2     2     0     0    nproj
     1     1           extension_switch
   0                         5.5195248559216E+00  1.0407691654684E+00
     1  0.0000000000000E+00  6.8897110239163E-12 -1.6247392320423E-11
     2  1.0000000000000E-02  4.9406508862820E-02 -7.9939640042066E-03
     3  2.0000000000000E-02  9.8756049946721E-02 -1.5965627767864E-02
     4  3.0000000000000E-02  1.4799169288478E-01 -2.3892634520195E-02
     5  4.0000000000000E-02  1.9705658235331E-01 -3.1752515121594E-02
     6  5.0000000000000E-02  2.4589397613993E-01 -3.9522633604169E-02
     7  6.0000000000000E-02  2.9444728386239E-01 -4.7180134770769E-02
     8  7.0000000000000E-02  3.4266010654710E-01 -5.4701894519544E-02
     9  8.0000000000000E-02  3.9047627726922E-01 -6.2064473544883E-02
    10  9.0000000000000E-02  4.3783990304779E-01 -6.9244075045378E-02
    11  1.0000000000000E-01  4.8469540817905E-01 -7.6216507045449E-02
    12  1.1000000000000E-01  5.3098757917940E-01 -8.2957149909527E-02
    13  1.2000000000000E-01  5.7666161149638E-01 -8.9440929596358E-02
    14  1.3000000000000E-01  6.2166315813105E-01 -9.5642297166147E-02
    15  1.4000000000000E-01  6.6593838029930E-01 -1.0153521501519E-01
    16  1.5000000000000E-01  7.0943400024228E-01 -1.0709315027131E-01
    17  1.6000000000000E-01  7.5209735627737E-01 -1.1228907573941E-01
    18  1.7000000000000E-01  7.9387646016179E-01 -1.1709547873914E-01
    19  1.8000000000000E-01  8.3472005681986E-01 -1.2148437812781E-01
    20  1.9000000000000E-01  8.7457768646383E-01 -1.2542734974924E-01
    21  2.0000000000000E-01  9.1339974911530E-01 -1.2889556049614E-01
    22  2.1000000000000E-01  9.5113757151183E-01 -1.3185981111754E-01
    23  2.2000000000000E-01  9.8774347635916E-01 -1.3429058784593E-01
    24  2.3000000000000E-01  1.0231708538660E+00 -1.3615812286048E-01
    25  2.4000000000000E-01  1.0573742354738E+00 -1.3743246354343E-01
    26  2.5000000000000E-01  1.0903093696690E+00 -1.3808355042671E-01
    27  2.6000000000000E-01  1.1219332997427E+00 -1.3808130366584E-01
    28  2.7000000000000E-01  1.1522044433350E+00 -1.3739571781768E-01
    29  2.8000000000000E-01  1.1810826735813E+00 -1.3599696463880E-01
    30  2.9000000000000E-01  1.2085294016502E+00 -1.3385550356171E-01
    31  3.0000000000000E-01  1.2345076604426E+00 -1.3094219944783E-01
    32  3.1000000000000E-01  1.2589821891984E+00 -1.2722844715898E-01
    33  3.2000000000000E-01  1.2819195187332E+00 -1.2268630243338E-01
    34  3.3000000000000E-01  1.3032880570112E+00 -1.1728861849857E-01
    35  3.4000000000000E-01  1.3230581747372E+00 -1.1100918780222E-01
    36  3.5000000000000E-01  1.3412022906341E+00 -1.0382288819270E-01
    37  3.6000000000000E-01  1.3576949560553E+00 -9.5705832835268E-02
    38  3.7000000000000E-01  1.3725129385652E+00 -8.6635523106730E-02
    39  3.8000000000000E-01  1.3856353041083E+00 -7.6591003671805E-02
    40  3.9000000000000E-01  1.3970434973750E+00 -6.5553018908597E-02
    41  4.0000000000000E-01  1.4067214199608E+00 -5.3504169818621E-02
    42  4.1000000000000E-01  1.4146555059103E+00 -4.0429070529116E-02
    43  4.2000000000000E-01  1.4208347942269E+00 -2.6314503472116E-02
    44  4.3000000000000E-01  1.4252509979295E+00 -1.1149572305926E-02
    45  4.4000000000000E-01  1.4278985692315E+00  5.0741483689306E-03
    46  4.5000000000000E-01  1.4287747604217E+00  2.2362467456295E-02
    47  4.6000000000000E-01  1.4278796800251E+00  4.0718436934049E-02
    48  4.7000000000000E-01  1.4252163438302E+00  6.0142217505962E-02
    49  4.8000000000000E-01  1.4207907203753E+00  8.0630951287807E-02
    50  4.9000000000000E-01  1.4146117704943E+00  1.0217864246744E-01
    51  5.0000000000000E-01  1.4066914805393E+00  1.2477604686093E-01
    52  5.1000000000000E-01  1.3970448889057E+00  1.4841057126319E-01
    53  5.2000000000000E-01  1.3856901055082E+00  1.7306618346308E-01
    54  5.3000000000000E-01  1.3726483238712E+00  1.9872333375855E-01
    55  5.4000000000000E-01  1.3579438255216E+00  2.2535888876807E-01
    56  5.5000000000000E-01  1.3416039763924E+00  2.5294607828951E-01
    57  5.6000000000000E-01  1.3236592149762E+00  2.8145445590818E-01
    58  5.7000000000000E-01  1.3041430319910E+00  3.1084987400053E-01
    59  5.8000000000000E-01  1.2830919413527E+00  3.4109447372084E-01
    60  5.9000000000000E-01  1.2605454422826E+00  3.7214669049408E-01
    61  6.0000000000000E-01  1.2365459724077E+00  4.0396127546977E-01
    62  6.1000000000000E-01  1.2111388517499E+00  4.3648933331987E-01
    63  6.2000000000000E-01  1.1843722175363E+00  4.6967837668751E-01
    64  6.3000000000000E-01  1.1562969497991E+00  5.0347239751456E-01
    65  6.4000000000000E-01  1.1269665877760E+00  5.3781195539406E-01
    66  6.5000000000000E-01  1.0964372371583E+00  5.7263428300892E-01
    67  6.6000000000000E-01  1.0647674682768E+00  6.0787340863178E-01
    68  6.7000000000000E-01  1.0320182053581E+00  6.4346029557282E-01
    69  6.8000000000000E-01  9.9825260702149E-01  6.7932299837257E-01
    70  6.9000000000000E-01  9.6353593823435E-01  7.1538683544673E-01
    71  7.0000000000000E-01  9.2793543397939E-01  7.5157457779986E-01
    72  7.1000000000000E-01  8.9152015493422E-01  7.8780665333398E-01
    73  7.2000000000000E-01  8.5436083550103E-01  8.2400136618926E-01
    74  7.3000000000000E-01  8.1652972456614E-01  8.6007513046543E-01
    75  7.4000000000000E-01  7.7810041940798E-01  8.9594271758611E-01
    76  7.5000000000000E-01  7.3914769321035E-01  9.3151751648441E-01
    77  7.6000000000000E-01  6.9974731667455E-01  9.6671180570617E-01
    78  7.7000000000000E-01  6.5997587425911E-01  1.0014370364496E+00
    79  7.8000000000000E-01  6.1991057560923E-01  1.0356041254852E+00
    80  7.9000000000000E-01  5.7962906276929E-01  1.0691237568302E+00
    81  8.0000000000000E-01  5.3920921380094E-01  1.1019066909857E+00
    82  8.1000000000000E-01  4.9872894345587E-01  1.1338640804848E+00
    83  8.2000000000000E-01  4.5826600157670E-01  1.1649077904447E+00
    84  8.3000000000000E-01  4.1789776992034E-01  1.1949507227677E+00
    85  8.4000000000000E-01  3.7770105811715E-01  1.2239071425921E+00
    86  8.5000000000000E-01  3.3775189949411E-01  1.2516930055588E+00
    87  8.6000000000000E-01  2.9812534750278E-01  1.2782262844312E+00
    88  8.7000000000000E-01  2.5889527350164E-01  1.3034272935817E+00
    89  8.8000000000000E-01  2.2013416664796E-01  1.3272190098461E+00
    90  8.9000000000000E-01  1.8191293665637E-01  1.3495273882387E+00
    91  9.0000000000000E-01  1.4430072018017E-01  1.3702816710223E+00
    92  9.1000000000000E-01  1.0736469156616E-01  1.3894146886351E+00
    93  9.2000000000000E-01  7.1169878725448E-02  1.4068631509957E+00
    94  9.3000000000000E-01  3.5778984850465E-02  1.4225679277270E+00
    95  9.4000000000000E-01  1.2522166930003E-03  1.4364743158771E+00
    96  9.5000000000000E-01 -3.2352879901381E-02  1.4485322937509E+00
    97  9.6000000000000E-01 -6.4981576529507E-02  1.4586967595186E+00
    98  9.7000000000000E-01 -9.6582110190463E-02  1.4669277533154E+00
    99  9.8000000000000E-01 -1.2710582205133E-01  1.4731906616173E+00
   100  9.9000000000000E-01 -1.5650728643401E-01  1.4774564027402E+00
   101  1.0000000000000E+00 -1.8474442947227E-01  1.4797015923881E+00
   102  1.0100000000000E+00 -2.1177863692820E-01  1.4799086882599E+00
   103  1.0200000000000E+00 -2.3757485069720E-01  1.4780661128078E+00
   104  1.0300000000000E+00 -2.6210165357415E-01  1.4741683533401E+00
   105  1.0400000000000E+00 -2.8533134189901E-01  1.4682160387515E+00
   106  1.0500000000000E+00 -3.0723998575012E-01  1.4602159922777E+00
   107  1.0600000000000E+00 -3.2780747639755E-01  1.4501812597630E+00
   108  1.0700000000000E+00 -3.4701756078687E-01  1.4381311130546E+00
   109  1.0800000000000E+00 -3.6485786287183E-01  1.4240910282411E+00
   110  1.0900000000000E+00 -3.8131989166885E-01  1.4080926385686E+00
   111  1.1000000000000E+00 -3.9639903596444E-01  1.3901736619929E+00
   112  1.1100000000000E+00 -4.1009454565155E-01  1.3703778034217E+00
   113  1.1200000000000E+00 -4.2240949973880E-01  1.3487546318459E+00
   114  1.1300000000000E+00 -4.3335076112198E-01  1.3253594326552E+00
   115  1.1400000000000E+00 -4.4292891827000E-01  1.3002530355650E+00
   116  1.1500000000000E+00 -4.5115821401841E-01  1.2735016186707E+00
   117  1.1600000000000E+00 -4.5805646173209E-01  1.2451764892857E+00
   118  1.1700000000000E+00 -4.6364494914056E-01  1.2153538423100E+00
   119  1.1800000000000E+00 -4.6794833020783E-01  1.1841144969935E+00
   120  1.1900000000000E+00 -4.7099450542999E-01  1.1515436130283E+00
   121  1.2000000000000E+00 -4.7281449102404E-01  1.1177303870409E+00
   122  1.2100000000000E+00 -4.7344227750205E-01  1.0827677306239E+00
   123  1.2200000000000E+00 -4.7291467816273E-01  1.0467519311169E+00
   124  1.2300000000000E+00 -4.7127116807963E-01  1.0097822964432E+00
   125  1.2400000000000E+00 -4.6855371420269E-01  9.7196078538038E-01
   126  1.2500000000000E+00 -4.6480659721466E-01  9.3339162468821E-01
   127  1.2600000000000E+00 -4.6007622581350E-01  8.9418091457448E-01
   128  1.2700000000000E+00 -4.5441094413070E-01  8.5443622404823E-01
   129  1.2800000000000E+00 -4.4786083300298E-01  8.1426617771777E-01
   130  1.2900000000000E+00 -4.4047750583671E-01  7.7378003563308E-01
   131  1.3000000000000E+00 -4.3231389982966E-01  7.3308726780234E-01
   132  1.3100000000000E+00 -4.2342406331028E-01  6.9229712499961E-01
   133  1.3200000000000E+00 -4.1386293997298E-01  6.5151820751148E-01
   134  1.3300000000000E+00 -4.0368615078672E-01  6.1085803343747E-01
   135  1.3400000000000E+00 -3.9294977435022E-01  5.7042260815572E-01
   136  1.3500000000000E+00 -3.8171012647485E-01  5.3031599656191E-01
   137  1.3600000000000E+00 -3.7002353974227E-01  4.9063989958649E-01
   138  1.3700000000000E+00 -3.5794614380547E-01  4.5149323655905E-01
   139  1.3800000000000E+00 -3.4553364716002E-01  4.1297173485260E-01
   140  1.3900000000000E+00 -3.3284112108367E-01  3.7516752817254E-01
   141  1.4000000000000E+00 -3.1992278647771E-01  3.3816876494008E-01
   142  1.4100000000000E+00 -3.0683180422005E-01  3.0205922789013E-01
   143  1.4200000000000E+00 -2.9362006970822E-01  2.6691796618806E-01
   144  1.4300000000000E+00 -2.8033801218629E-01  2.3281894114078E-01
   145  1.4400000000000E+00 -2.6703439937819E-01  1.9983068640723E-01
   146  1.4500000000000E+00 -2.5375614805144E-01  1.6801598385837E-01
   147  1.4600000000000E+00 -2.4054814087641E-01  1.3743155559774E-01
   148  1.4700000000000E+00 -2.2745305014481E-01  1.0812777314366E-01
   149  1.4800000000000E+00 -2.1451116867354E-01  8.0148384189031E-02
   150  1.4900000000000E+00 -2.0176024826108E-01  5.3530257464325E-02
   151  1.5000000000000E+00 -1.8923533405712E-01  2.8303105392881E-02
   152  1.5100000000000E+00 -1.7696869356405E-01  4.4895203945559E-03
   153  1.5200000000000E+00 -1.6498954924788E-01 -1.7895667578599E-02
   154  1.5300000000000E+00 -1.5332380471085E-01 -3.8846077057513E-02
   155  1.5400000000000E+00 -1.4199460795167E-01 -5.8361573970055E-02
   156  1.5500000000000E+00 -1.3102256439954E-01 -7.6447318932975E-02
   157  1.5600000000000E+00 -1.2042495656748E-01 -9.3116307935796E-02
   158  1.5700000000000E+00 -1.1021585295868E-01 -1.0838886654860E-01
   159  1.5800000000000E+00 -1.0040691463435E-01 -1.2228974036975E-01
   160  1.5900000000000E+00 -9.1007618391367E-02 -1.3484730945583E-01
   161  1.6000000000000E+00 -8.2025461564549E-02 -1.4609293950845E-01
   162  1.6100000000000E+00 -7.3466043009911E-02 -1.5606072330689E-01
   163  1.6200000000000E+00 -6.5333027601573E-02 -1.6478764887288E-01
   164  1.6300000000000E+00 -5.7628258018366E-02 -1.7231326340730E-01
   165  1.6400000000000E+00 -5.0351828012096E-02 -1.7867947940233E-01
   166  1.6500000000000E+00 -4.3502159451901E-02 -1.8393037551797E-01
   167  1.6600000000000E+00 -3.7076085205657E-02 -1.8811198432390E-01
   168  1.6700000000000E+00 -3.1068935651432E-02 -1.9127207441669E-01
   169  1.6800000000000E+00 -2.5474628251682E-02 -1.9345992825266E-01
   170  1.6900000000000E+00 -2.0285759791493E-02 -1.9472611677815E-01
   171  1.7000000000000E+00 -1.5493700767734E-02 -1.9512227203663E-01
   172  1.7100000000000E+00 -1.1088691456144E-02 -1.9470085902168E-01
   173  1.7200000000000E+00 -7.0599392181298E-03 -1.9351494773876E-01
   174  1.7300000000000E+00 -3.3957164945037E-03 -1.9161798694989E-01
   175  1.7400000000000E+00 -8.3459152370110E-05 -1.8906358026735E-01
   176  1.7500000000000E+00  2.8901354586061E-03 -1.8590526630666E-01
   177  1.7600000000000E+00  5.5390109493228E-03 -1.8219630321911E-01
   178  1.7700000000000E+00  7.8776555547323E-03 -1.7798945950334E-01
   179  1.7800000000000E+00  9.9210071149274E-03 -1.7333681112145E-01
   180  1.7900000000000E+00  1.1684360127737E-02 -1.6828954687863E-01
   181  1.8000000000000E+00  1.3183274899301E-02 -1.6289778191714E-01
   182  1.8100000000000E+00  1.4433489509943E-02 -1.5721038115068E-01
   183  1.8200000000000E+00  1.5450834621098E-02 -1.5127479250979E-01
   184  1.8300000000000E+00  1.6251151704507E-02 -1.4513689142288E-01
   185  1.8400000000000E+00  1.6850214821295E-02 -1.3884083670027E-01
   186  1.8500000000000E+00  1.7263656268370E-02 -1.3242893850571E-01
   187  1.8600000000000E+00  1.7506896449088E-02 -1.2594153921732E-01
   188  1.8700000000000E+00  1.7595077880340E-02 -1.1941690675363E-01
   189  1.8800000000000E+00  1.7543004053607E-02 -1.1289114214078E-01
   190  1.8900000000000E+00  1.7365082543574E-02 -1.0639809950382E-01
   191  1.9000000000000E+00  1.7075273448462E-02 -9.9969321228824E-02
   192  1.9100000000000E+00  1.6687042250621E-02 -9.3633985679743E-02
   193  1.9200000000000E+00  1.6213318078690E-02 -8.7418869917551E-02
   194  1.9300000000000E+00  1.5666456727116E-02 -8.1348325541449E-02
   195  1.9400000000000E+00  1.5058208821610E-02 -7.5444268506370E-02
   196  1.9500000000000E+00  1.4399693096828E-02 -6.9726182661234E-02
   197  1.9600000000000E+00  1.3701374371304E-02 -6.4211135747726E-02
   198  1.9700000000000E+00  1.2973046869815E-02 -5.8913809382549E-02
   199  1.9800000000000E+00  1.2223821816135E-02 -5.3846540061813E-02
   200  1.9900000000000E+00  1.1462120212457E-02 -4.9019373368298E-02
   201  2.0000000000000E+00  1.0695669776401E-02 -4.4440128576821E-02
   202  2.0100000000000E+00  9.9315063756873E-03 -4.0114474336228E-02
   203  2.0200000000000E+00  9.1759796969500E-03 -3.6046014583195E-02
   204  2.0300000000000E+00  8.4347625690119E-03 -3.2236383057351E-02
   205  2.0400000000000E+00  7.7128643724867E-03 -2.8685347274369E-02
   206  2.0500000000000E+00  7.0146475178858E-03 -2.5390919300183E-02
   207  2.0600000000000E+00  6.3438473554975E-03 -2.2349473954847E-02
   208  2.0700000000000E+00  5.7035948845527E-03 -1.9555872761397E-02
   209  2.0800000000000E+00  5.0964419979781E-03 -1.7003592792286E-02
   210  2.0900000000000E+00  4.5243891656172E-03 -1.4684859895781E-02
   211  2.1000000000000E+00  3.9889149575591E-03 -1.2590784850474E-02
   212  2.1100000000000E+00  3.4910073124059E-03 -1.0711501761603E-02
   213  2.1200000000000E+00  3.0311961355699E-03 -9.0363077409805E-03
   214  2.1300000000000E+00  2.6095869214344E-03 -7.5538028726966E-03
   215  2.1400000000000E+00  2.2258950173657E-03 -6.2520292026059E-03
   216  2.1500000000000E+00  1.8794804415853E-03 -5.1186087651054E-03
   217  2.1600000000000E+00  1.5693825531483E-03 -4.1408782841987E-03
   218  2.1700000000000E+00  1.2943546163133E-03 -3.3060208845634E-03
   219  2.1800000000000E+00  1.0528979421323E-03 -2.6011938653411E-03
   220  2.1900000000000E+00  8.4329485138566E-04 -2.0136501886451E-03
   221  2.2000000000000E+00  6.6364104918952E-04 -1.5308556530710E-03
   222  2.2100000000000E+00  5.1187626222981E-04 -1.1405982155687E-03
   223  2.2200000000000E+00  3.8581325497035E-04 -8.3108989640459E-04
   224  2.2300000000000E+00  2.8316563170199E-04 -5.9106255539171E-04
   225  2.2400000000000E+00  2.0157789698860E-04 -4.0988648816407E-04
   226  2.2500000000000E+00  1.3863538646378E-04 -2.7756000919779E-04
   227  2.2600000000000E+00  9.1878839419064E-05 -1.8473593412013E-04
   228  2.2700000000000E+00  5.8708594086046E-05 -1.2253440144221E-04
   229  2.2800000000000E+00  3.6934904667804E-05 -8.4282285139198E-05
   230  2.2900000000000E+00  2.4323295306782E-05 -6.4023102412990E-05
   231  2.3000000000000E+00  1.9080904343981E-05 -5.7674513743613E-05
   232  2.3100000000000E+00  1.6834071628949E-05 -5.4406346448912E-05
   233  2.3200000000000E+00  1.4033180812463E-05 -4.5933226787011E-05
   234  2.3300000000000E+00  8.5065215217558E-06 -2.7874030164068E-05
   235  2.3400000000000E+00  2.6195501369813E-06 -8.5365585199577E-06
   236  2.3500000000000E+00 -1.0100830630640E-06  3.3771798483780E-06
   237  2.3600000000000E+00 -1.4892445484354E-06  4.9838767547941E-06
   238  2.3700000000000E+00 -4.7163280671453E-07  1.5785981491577E-06
   239  2.3800000000000E+00  2.5122618391134E-07 -8.5156157627161E-07
   240  2.3900000000000E+00  3.1402961465997E-07 -1.0665167226486E-06
   241  2.4000000000000E+00  6.4211894127606E-08 -2.1843107433881E-07
   242  2.4100000000000E+00 -3.5333943999084E-08  1.1537386271971E-07
   243  2.4200000000000E+00 -3.8425346824304E-08  1.2546803972914E-07
   244  2.4300000000000E+00 -3.4447841380265E-09  1.1248052361491E-08
   245  2.4400000000000E+00  0.0000000000000E+00  0.0000000000000E+00
   246  2.4500000000000E+00  0.0000000000000E+00  0.0000000000000E+00
   247  2.4600000000000E+00  0.0000000000000E+00  0.0000000000000E+00
   248  2.4700000000000E+00  0.0000000000000E+00  0.0000000000000E+00
   249  2.4800000000000E+00  0.0000000000000E+00  0.0000000000000E+00
   250  2.4900000000000E+00  0.0000000000000E+00  0.0000000000000E+00
   251  2.5000000000000E+00  0.0000000000000E+00  0.0000000000000E+00
   252  2.5100000000000E+00  0.0000000000000E+00  0.0000000000000E+00
   253  2.5200000000000E+00  0.0000000000000E+00  0.0000000000000E+00
   254  2.5300000000000E+00  0.0000000000000E+00  0.0000000000000E+00
   255  2.5400000000000E+00  0.0000000000000E+00  0.0000000000000E+00
   256  2.5500000000000E+00  0.0000000000000E+00  0.0000000000000E+00
   257  2.5600000000000E+00  0.0000000000000E+00  0.0000000000000E+00
   258  2.5700000000000E+00  0.0000000000000E+00  0.0000000000000E+00
   259  2.5800000000000E+00  0.0000000000000E+00  0.0000000000000E+00
   260  2.5900000000000E+00  0.0000000000000E+00  0.0000000000000E+00
   261  2.6000000000000E+00  0.0000000000000E+00  0.0000000000000E+00
   262  2.6100000000000E+00  0.0000000000000E+00  0.0000000000000E+00
   263  2.6200000000000E+00  0.0000000000000E+00  0.0000000000000E+00
   264  2.6300000000000E+00  0.0000000000000E+00  0.0000000000000E+00
   265  2.6400000000000E+00  0.0000000000000E+00  0.0000000000000E+00
   266  2.6500000000000E+00  0.0000000000000E+00  0.0000000000000E+00
   267  2.6600000000000E+00  0.0000000000000E+00  0.0000000000000E+00
   268  2.6700000000000E+00  0.0000000000000E+00  0.0000000000000E+00
   269  2.6800000000000E+00  0.0000000000000E+00  0.0000000000000E+00
   270  2.6900000000000E+00  0.0000000000000E+00  0.0000000000000E+00
   271  2.7000000000000E+00  0.0000000000000E+00  0.0000000000000E+00
   272  2.7100000000000E+00  0.0000000000000E+00  0.0000000000000E+00
   273  2.7200000000000E+00  0.0000000000000E+00  0.0000000000000E+00
   274  2.7300000000000E+00  0.0000000000000E+00  0.0000000000000E+00
   275  2.7400000000000E+00  0.0000000000000E+00  0.0000000000000E+00
   276  2.7500000000000E+00  0.0000000000000E+00  0.0000000000000E+00
   277  2.7600000000000E+00  0.0000000000000E+00  0.0000000000000E+00
   278  2.7700000000000E+00  0.0000000000000E+00  0.0000000000000E+00
   279  2.7800000000000E+00  0.0000000000000E+00  0.0000000000000E+00
   280  2.7900000000000E+00  0.0000000000000E+00  0.0000000000000E+00
   281  2.8000000000000E+00  0.0000000000000E+00  0.0000000000000E+00
   282  2.8100000000000E+00  0.0000000000000E+00  0.0000000000000E+00
   283  2.8200000000000E+00  0.0000000000000E+00  0.0000000000000E+00
   284  2.8300000000000E+00  0.0000000000000E+00  0.0000000000000E+00
   285  2.8400000000000E+00  0.0000000000000E+00  0.0000000000000E+00
   286  2.8500000000000E+00  0.0000000000000E+00  0.0000000000000E+00
   287  2.8600000000000E+00  0.0000000000000E+00  0.0000000000000E+00
   288  2.8700000000000E+00  0.0000000000000E+00  0.0000000000000E+00
   289  2.8800000000000E+00  0.0000000000000E+00  0.0000000000000E+00
   290  2.8900000000000E+00  0.0000000000000E+00  0.0000000000000E+00
   291  2.9000000000000E+00  0.0000000000000E+00  0.0000000000000E+00
   292  2.9100000000000E+00  0.0000000000000E+00  0.0000000000000E+00
   293  2.9200000000000E+00  0.0000000000000E+00  0.0000000000000E+00
   294  2.9300000000000E+00  0.0000000000000E+00  0.0000000000000E+00
   295  2.9400000000000E+00  0.0000000000000E+00  0.0000000000000E+00
   296  2.9500000000000E+00  0.0000000000000E+00  0.0000000000000E+00
   297  2.9600000000000E+00  0.0000000000000E+00  0.0000000000000E+00
   298  2.9700000000000E+00  0.0000000000000E+00  0.0000000000000E+00
   299  2.9800000000000E+00  0.0000000000000E+00  0.0000000000000E+00
   300  2.9900000000000E+00  0.0000000000000E+00  0.0000000000000E+00
   301  3.0000000000000E+00  0.0000000000000E+00  0.0000000000000E+00
   302  3.0100000000000E+00  0.0000000000000E+00  0.0000000000000E+00
   303  3.0200000000000E+00  0.0000000000000E+00  0.0000000000000E+00
   304  3.0300000000000E+00  0.0000000000000E+00  0.0000000000000E+00
   305  3.0400000000000E+00  0.0000000000000E+00  0.0000000000000E+00
   306  3.0500000000000E+00  0.0000000000000E+00  0.0000000000000E+00
   307  3.0600000000000E+00  0.0000000000000E+00  0.0000000000000E+00
   308  3.0700000000000E+00  0.0000000000000E+00  0.0000000000000E+00
   309  3.0800000000000E+00  0.0000000000000E+00  0.0000000000000E+00
   310  3.0900000000000E+00  0.0000000000000E+00  0.0000000000000E+00
   311  3.1000000000000E+00  0.0000000000000E+00  0.0000000000000E+00
   312  3.1100000000000E+00  0.0000000000000E+00  0.0000000000000E+00
   313  3.1200000000000E+00  0.0000000000000E+00  0.0000000000000E+00
   314  3.1300000000000E+00  0.0000000000000E+00  0.0000000000000E+00
   315  3.1400000000000E+00  0.0000000000000E+00  0.0000000000000E+00
   316  3.1500000000000E+00  0.0000000000000E+00  0.0000000000000E+00
   317  3.1600000000000E+00  0.0000000000000E+00  0.0000000000000E+00
   318  3.1700000000000E+00  0.0000000000000E+00  0.0000000000000E+00
   319  3.1800000000000E+00  0.0000000000000E+00  0.0000000000000E+00
   320  3.1900000000000E+00  0.0000000000000E+00  0.0000000000000E+00
   321  3.2000000000000E+00  0.0000000000000E+00  0.0000000000000E+00
   322  3.2100000000000E+00  0.0000000000000E+00  0.0000000000000E+00
   323  3.2200000000000E+00  0.0000000000000E+00  0.0000000000000E+00
   324  3.2300000000000E+00  0.0000000000000E+00  0.0000000000000E+00
   325  3.2400000000000E+00  0.0000000000000E+00  0.0000000000000E+00
   326  3.2500000000000E+00  0.0000000000000E+00  0.0000000000000E+00
   327  3.2600000000000E+00  0.0000000000000E+00  0.0000000000000E+00
   328  3.2700000000000E+00  0.0000000000000E+00  0.0000000000000E+00
   329  3.2800000000000E+00  0.0000000000000E+00  0.0000000000000E+00
   330  3.2900000000000E+00  0.0000000000000E+00  0.0000000000000E+00
   331  3.3000000000000E+00  0.0000000000000E+00  0.0000000000000E+00
   332  3.3100000000000E+00  0.0000000000000E+00  0.0000000000000E+00
   333  3.3200000000000E+00  0.0000000000000E+00  0.0000000000000E+00
   334  3.3300000000000E+00  0.0000000000000E+00  0.0000000000000E+00
   335  3.3400000000000E+00  0.0000000000000E+00  0.0000000000000E+00
   336  3.3500000000000E+00  0.0000000000000E+00  0.0000000000000E+00
   337  3.3600000000000E+00  0.0000000000000E+00  0.0000000000000E+00
   338  3.3700000000000E+00  0.0000000000000E+00  0.0000000000000E+00
   339  3.3800000000000E+00  0.0000000000000E+00  0.0000000000000E+00
   340  3.3900000000000E+00  0.0000000000000E+00  0.0000000000000E+00
   341  3.4000000000000E+00  0.0000000000000E+00  0.0000000000000E+00
   342  3.4100000000000E+00  0.0000000000000E+00  0.0000000000000E+00
   343  3.4200000000000E+00  0.0000000000000E+00  0.0000000000000E+00
   344  3.4300000000000E+00  0.0000000000000E+00  0.0000000000000E+00
   345  3.4400000000000E+00  0.0000000000000E+00  0.0000000000000E+00
   346  3.4500000000000E+00  0.0000000000000E+00  0.0000000000000E+00
   347  3.4600000000000E+00  0.0000000000000E+00  0.0000000000000E+00
   348  3.4700000000000E+00  0.0000000000000E+00  0.0000000000000E+00
   349  3.4800000000000E+00  0.0000000000000E+00  0.0000000000000E+00
   350  3.4900000000000E+00  0.0000000000000E+00  0.0000000000000E+00
   351  3.5000000000000E+00  0.0000000000000E+00  0.0000000000000E+00
   352  3.5100000000000E+00  0.0000000000000E+00  0.0000000000000E+00
   353  3.5200000000000E+00  0.0000000000000E+00  0.0000000000000E+00
   354  3.5300000000000E+00  0.0000000000000E+00  0.0000000000000E+00
   355  3.5400000000000E+00  0.0000000000000E+00  0.0000000000000E+00
   356  3.5500000000000E+00  0.0000000000000E+00  0.0000000000000E+00
   357  3.5600000000000E+00  0.0000000000000E+00  0.0000000000000E+00
   358  3.5700000000000E+00  0.0000000000000E+00  0.0000000000000E+00
   359  3.5800000000000E+00  0.0000000000000E+00  0.0000000000000E+00
   360  3.5900000000000E+00  0.0000000000000E+00  0.0000000000000E+00
   361  3.6000000000000E+00  0.0000000000000E+00  0.0000000000000E+00
   362  3.6100000000000E+00  0.0000000000000E+00  0.0000000000000E+00
   363  3.6200000000000E+00  0.0000000000000E+00  0.0000000000000E+00
   364  3.6300000000000E+00  0.0000000000000E+00  0.0000000000000E+00
   365  3.6400000000000E+00  0.0000000000000E+00  0.0000000000000E+00
   366  3.6500000000000E+00  0.0000000000000E+00  0.0000000000000E+00
   367  3.6600000000000E+00  0.0000000000000E+00  0.0000000000000E+00
   368  3.6700000000000E+00  0.0000000000000E+00  0.0000000000000E+00
   369  3.6800000000000E+00  0.0000000000000E+00  0.0000000000000E+00
   370  3.6900000000000E+00  0.0000000000000E+00  0.0000000000000E+00
   371  3.7000000000000E+00  0.0000000000000E+00  0.0000000000000E+00
   372  3.7100000000000E+00  0.0000000000000E+00  0.0000000000000E+00
   373  3.7200000000000E+00  0.0000000000000E+00  0.0000000000000E+00
   374  3.7300000000000E+00  0.0000000000000E+00  0.0000000000000E+00
   375  3.7400000000000E+00  0.0000000000000E+00  0.0000000000000E+00
   376  3.7500000000000E+00  0.0000000000000E+00  0.0000000000000E+00
   377  3.7600000000000E+00  0.0000000000000E+00  0.0000000000000E+00
   378  3.7700000000000E+00  0.0000000000000E+00  0.0000000000000E+00
   379  3.7800000000000E+00  0.0000000000000E+00  0.0000000000000E+00
   380  3.7900000000000E+00  0.0000000000000E+00  0.0000000000000E+00
   381  3.8000000000000E+00  0.0000000000000E+00  0.0000000000000E+00
   382  3.8100000000000E+00  0.0000000000000E+00  0.0000000000000E+00
   383  3.8200000000000E+00  0.0000000000000E+00  0.0000000000000E+00
   384  3.8300000000000E+00  0.0000000000000E+00  0.0000000000000E+00
   385  3.8400000000000E+00  0.0000000000000E+00  0.0000000000000E+00
   386  3.8500000000000E+00  0.0000000000000E+00  0.0000000000000E+00
   387  3.8600000000000E+00  0.0000000000000E+00  0.0000000000000E+00
   388  3.8700000000000E+00  0.0000000000000E+00  0.0000000000000E+00
   389  3.8800000000000E+00  0.0000000000000E+00  0.0000000000000E+00
   390  3.8900000000000E+00  0.0000000000000E+00  0.0000000000000E+00
   391  3.9000000000000E+00  0.0000000000000E+00  0.0000000000000E+00
   392  3.9100000000000E+00  0.0000000000000E+00  0.0000000000000E+00
   393  3.9200000000000E+00  0.0000000000000E+00  0.0000000000000E+00
   394  3.9300000000000E+00  0.0000000000000E+00  0.0000000000000E+00
   395  3.9400000000000E+00  0.0000000000000E+00  0.0000000000000E+00
   396  3.9500000000000E+00  0.0000000000000E+00  0.0000000000000E+00
   397  3.9600000000000E+00  0.0000000000000E+00  0.0000000000000E+00
   398  3.9700000000000E+00  0.0000000000000E+00  0.0000000000000E+00
   399  3.9800000000000E+00  0.0000000000000E+00  0.0000000000000E+00
   400  3.9900000000000E+00  0.0000000000000E+00  0.0000000000000E+00
   401  4.0000000000000E+00  0.0000000000000E+00  0.0000000000000E+00
   402  4.0100000000000E+00  0.0000000000000E+00  0.0000000000000E+00
   403  4.0200000000000E+00  0.0000000000000E+00  0.0000000000000E+00
   404  4.0300000000000E+00  0.0000000000000E+00  0.0000000000000E+00
   405  4.0400000000000E+00  0.0000000000000E+00  0.0000000000000E+00
   406  4.0500000000000E+00  0.0000000000000E+00  0.0000000000000E+00
   407  4.0600000000000E+00  0.0000000000000E+00  0.0000000000000E+00
   408  4.0700000000000E+00  0.0000000000000E+00  0.0000000000000E+00
   409  4.0800000000000E+00  0.0000000000000E+00  0.0000000000000E+00
   410  4.0900000000000E+00  0.0000000000000E+00  0.0000000000000E+00
   411  4.1000000000000E+00  0.0000000000000E+00  0.0000000000000E+00
   412  4.1100000000000E+00  0.0000000000000E+00  0.0000000000000E+00
   413  4.1200000000000E+00  0.0000000000000E+00  0.0000000000000E+00
   414  4.1300000000000E+00  0.0000000000000E+00  0.0000000000000E+00
   415  4.1400000000000E+00  0.0000000000000E+00  0.0000000000000E+00
   416  4.1500000000000E+00  0.0000000000000E+00  0.0000000000000E+00
   417  4.1600000000000E+00  0.0000000000000E+00  0.0000000000000E+00
   418  4.1700000000000E+00  0.0000000000000E+00  0.0000000000000E+00
   419  4.1800000000000E+00  0.0000000000000E+00  0.0000000000000E+00
   420  4.1900000000000E+00  0.0000000000000E+00  0.0000000000000E+00
   421  4.2000000000000E+00  0.0000000000000E+00  0.0000000000000E+00
   422  4.2100000000000E+00  0.0000000000000E+00  0.0000000000000E+00