S     ONCVPSP-3.3.1  r_core=   2.12945   1.52480
     16.0000      6.0000      190612    zatom,zion,pspd
     8       2   1     4   600     0    pspcod,pspxc,lmax,lloc,mmax,r2well
  5.99000000  0.00000000  0.00000000    rchrg fchrg qchrg
     2     2     0     0     0    nproj
     1     1           extension_switch
   0                         8.9827180675077E+00  6.8073132435381E-01
     1  0.0000000000000E+00  5.0211279578605E-11 -1.0112191639600E-10
     2  1.0000000000000E-02  3.8571270772228E-02 -2.5601896224017E-02
     3  2.0000000000000E-02  7.7137735246377E-02 -5.1174909334600E-02
     4  3.0000000000000E-02  1.1569434713513E-01 -7.6689870995762E-02
     5  4.0000000000000E-02  1.5423558212077E-01 -1.0211704576336E-01
     6  5.0000000000000E-02  1.9275520369743E-01 -1.2742585584769E-01
     7  6.0000000000000E-02  2.3124603480671E-01 -1.5258461578424E-01
     8  7.0000000000000E-02  2.6969973713842E-01 -1.7756028019591E-01
     9  8.0000000000000E-02  3.0810659991849E-01 -2.0231820772890E-01
    10  9.0000000000000E-02  3.4645533994306E-01 -2.2682194411861E-01
    11  1.0000000000000E-01  3.8473291454460E-01 -2.5103302719340E-01
    12  1.1000000000000E-01  4.2292434909029E-01 -2.7491081645224E-01
    13  1.2000000000000E-01  4.6101258051733E-01 -2.9841234965977E-01
    14  1.3000000000000E-01  4.9897831830372E-01 -3.2149222868902E-01
    15  1.4000000000000E-01  5.3679992415785E-01 -3.4410253661019E-01
    16  1.5000000000000E-01  5.7445331158556E-01 -3.6619278777428E-01
    17  1.6000000000000E-01  6.1191186636144E-01 -3.8770991237527E-01
    18  1.7000000000000E-01  6.4914638879102E-01 -4.0859827669466E-01
    19  1.8000000000000E-01  6.8612505850464E-01 -4.2879973994067E-01
    20  1.9000000000000E-01  7.2281342237207E-01 -4.4825374829132E-01
    21  2.0000000000000E-01  7.5917440597043E-01 -4.6689746644023E-01
    22  2.1000000000000E-01  7.9516834887800E-01 -4.8466594662569E-01
    23  2.2000000000000E-01  8.3075306390351E-01 -5.0149233480192E-01
    24  2.3000000000000E-01  8.6588392019613E-01 -5.1730811328722E-01
    25  2.4000000000000E-01  9.0051395001560E-01 -5.3204337889907E-01
    26  2.5000000000000E-01  9.3459397877731E-01 -5.4562715526446E-01
    27  2.6000000000000E-01  9.6807277782297E-01 -5.5798773767585E-01
    28  2.7000000000000E-01  1.0008972392061E+00 -5.6905306855234E-01
    29  2.8000000000000E-01  1.0330125716233E+00 -5.7875114126379E-01
    30  2.9000000000000E-01  1.0643625164694E+00 -5.8701042978486E-01
    31  3.0000000000000E-01  1.0948895828430E+00 -5.9376034136876E-01
    32  3.1000000000000E-01  1.1245353001921E+00 -5.9893168916908E-01
    33  3.2000000000000E-01  1.1532404871476E+00 -6.0245718149417E-01
    34  3.3000000000000E-01  1.1809455349718E+00 -6.0427192415479E-01
    35  3.4000000000000E-01  1.2075907039266E+00 -6.0431393216323E-01
    36  3.5000000000000E-01  1.2331164307602E+00 -6.0252464686411E-01
    37  3.6000000000000E-01  1.2574636454122E+00 -5.9884945442345E-01
    38  3.7000000000000E-01  1.2805740949509E+00 -5.9323820147694E-01
    39  3.8000000000000E-01  1.3023906726819E+00 -5.8564570364065E-01
    40  3.9000000000000E-01  1.3228577503048E+00 -5.7603224252004E-01
    41  4.0000000000000E-01  1.3419215109449E+00 -5.6436404681656E-01
    42  4.1000000000000E-01  1.3595302808525E+00 -5.5061375312684E-01
    43  4.2000000000000E-01  1.3756348575374E+00 -5.3476084205862E-01
    44  4.3000000000000E-01  1.3901888321023E+00 -5.1679204534968E-01
    45  4.4000000000000E-01  1.4031489035391E+00 -4.9670171977262E-01
    46  4.5000000000000E-01  1.4144751827800E+00 -4.7449218374053E-01
    47  4.6000000000000E-01  1.4241314843217E+00 -4.5017401269307E-01
    48  4.7000000000000E-01  1.4320856032992E+00 -4.2376628954384E-01
    49  4.8000000000000E-01  1.4383095759411E+00 -3.9529680670373E-01
    50  4.9000000000000E-01  1.4427799214232E+00 -3.6480221646360E-01
    51  5.0000000000000E-01  1.4454778632232E+00 -3.3232812681980E-01
    52  5.1000000000000E-01  1.4463895281870E+00 -2.9792914015939E-01
    53  5.2000000000000E-01  1.4455061216355E+00 -2.6166883258516E-01
    54  5.3000000000000E-01  1.4428240769689E+00 -2.2361967205333E-01
    55  5.4000000000000E-01  1.4383451783706E+00 -1.8386287391741E-01
    56  5.5000000000000E-01  1.4320766553634E+00 -1.4248819291754E-01
    57  5.6000000000000E-01  1.4240312481378E+00 -9.9593651126101E-02
    58  5.7000000000000E-01  1.4142272427429E+00 -5.5285201850796E-02
    59  5.8000000000000E-01  1.4026884754153E+00 -9.6763300098482E-03
    60  5.9000000000000E-01  1.3894443055097E+00  3.7112409979618E-02
    61  6.0000000000000E-01  1.3745295566936E+00  8.4953917213888E-02
    62  6.1000000000000E-01  1.3579844262713E+00  1.3371512607778E-01
    63  6.2000000000000E-01  1.3398543627092E+00  1.8325764407927E-01
    64  6.3000000000000E-01  1.3201899116480E+00  2.3343844247322E-01
    65  6.4000000000000E-01  1.2990465308993E+00  2.8411059583241E-01
    66  6.5000000000000E-01  1.2764843751435E+00  3.3512406615215E-01
    67  6.6000000000000E-01  1.2525680512561E+00  3.8632652650910E-01
    68  6.7000000000000E-01  1.2273663454121E+00  4.3756421873450E-01
    69  6.8000000000000E-01  1.2009519233236E+00  4.8868283901067E-01
    70  6.9000000000000E-01  1.1734010051831E+00  5.3952844476418E-01
    71  7.0000000000000E-01  1.1447930170841E+00  5.8994837570912E-01
    72  7.1000000000000E-01  1.1152102208947E+00  6.3979218139112E-01
    73  7.2000000000000E-01  1.0847373247533E+00  6.8891254710652E-01
    74  7.3000000000000E-01  1.0534610765387E+00  7.3716620961687E-01
    75  7.4000000000000E-01  1.0214698428470E+00  7.8441485365598E-01
    76  7.5000000000000E-01  9.8885317617428E-01  8.3052597983177E-01
    77  7.6000000000000E-01  9.5570137315935E-01  8.7537373416580E-01
    78  7.7000000000000E-01  9.2210502688969E-01  9.1883968918940E-01
    79  7.8000000000000E-01  8.8815457640322E-01  9.6081356622841E-01
    80  7.9000000000000E-01  8.5393985664085E-01  1.0011938882631E+00
    81  8.0000000000000E-01  8.1954965221027E-01  1.0398885525442E+00
    82  8.1000000000000E-01  7.8507125841341E-01  1.0768153119860E+00
    83  8.2000000000000E-01  7.5059005306716E-01  1.1119021542380E+00
    84  8.3000000000000E-01  7.1618908270871E-01  1.1450875672674E+00
    85  8.4000000000000E-01  6.8194866682286E-01  1.1763206802587E+00
    86  8.5000000000000E-01  6.4794602375889E-01  1.2055612686549E+00
    87  8.6000000000000E-01  6.1425492201872E-01  1.2327796122384E+00
    88  8.7000000000000E-01  5.8094536059570E-01  1.2579561952576E+00
    89  8.8000000000000E-01  5.4808328202524E-01  1.2810812377722E+00
    90  8.9000000000000E-01  5.1573032177401E-01  1.3021540475936E+00
    91  9.0000000000000E-01  4.8394359754405E-01  1.3211821824493E+00
    92  9.1000000000000E-01  4.5277554200200E-01  1.3381804122957E+00
    93  9.2000000000000E-01  4.2227378236273E-01  1.3531694720426E+00
    94  9.3000000000000E-01  3.9248107015998E-01  1.3661745953295E+00
    95  9.4000000000000E-01  3.6343526391933E-01  1.3772238159943E+00
    96  9.5000000000000E-01  3.3516937219443E-01  1.3863460635005E+00
    97  9.6000000000000E-01  3.0771163776254E-01  1.3935688649499E+00
    98  9.7000000000000E-01  2.8108576157818E-01  1.3989165043757E+00
    99  9.8000000000000E-01  2.5531118949134E-01  1.4024076845350E+00
   100  9.9000000000000E-01  2.3040363545843E-01  1.4040553379242E+00
   101  1.0000000000000E+00  2.0637983900437E-01  1.4039119628815E+00
   102  1.0100000000000E+00  1.8324796361387E-01  1.4019714516059E+00
   103  1.0200000000000E+00  1.6101530591563E-01  1.3982431137758E+00
   104  1.0300000000000E+00  1.3969036901865E-01  1.3927726187898E+00
   105  1.0400000000000E+00  1.1927749381467E-01  1.3855897271847E+00
   106  1.0500000000000E+00  9.9779378747920E-02  1.3767319809426E+00
   107  1.0600000000000E+00  8.1196661820500E-02  1.3662401386735E+00
   108  1.0700000000000E+00  6.3528012659752E-02  1.3541584746306E+00
   109  1.0800000000000E+00  4.6770188247448E-02  1.3405347006390E+00
   110  1.0900000000000E+00  3.0918085533318E-02  1.3254198252476E+00
   111  1.1000000000000E+00  1.5964797256674E-02  1.3088680082817E+00
   112  1.1100000000000E+00  1.9016700740500E-03  1.2909364000440E+00
   113  1.1200000000000E+00 -1.1281634810628E-02  1.2716849656777E+00
   114  1.1300000000000E+00 -2.3597078365938E-02  1.2511762954466E+00
   115  1.1400000000000E+00 -3.5058177708836E-02  1.2294754018845E+00
   116  1.1500000000000E+00 -4.5679937293634E-02  1.2066495049219E+00
   117  1.1600000000000E+00 -5.5478777326592E-02  1.1827678062399E+00
   118  1.1700000000000E+00 -6.4472459475107E-02  1.1579012542070E+00
   119  1.1800000000000E+00 -7.2680009986523E-02  1.1321223008181E+00
   120  1.1900000000000E+00 -8.0121640367641E-02  1.1055046521057E+00
   121  1.2000000000000E+00 -8.6818665828108E-02  1.0781230135376E+00
   122  1.2100000000000E+00 -9.2793421719096E-02  1.0500528319120E+00
   123  1.2200000000000E+00 -9.8069178226252E-02  1.0213700352550E+00
   124  1.2300000000000E+00 -1.0267005359932E-01  9.9215077222518E-01
   125  1.2400000000000E+00 -1.0662092622729E-01  9.6247115247901E-01
   126  1.2500000000000E+00 -1.0994734587419E-01  9.3240698940354E-01
   127  1.2600000000000E+00 -1.1267544440241E-01  9.0203354661921E-01
   128  1.2700000000000E+00 -1.1483184632230E-01  8.7142528954212E-01
   129  1.2800000000000E+00 -1.1644357950001E-01  8.4065564323901E-01
   130  1.2900000000000E+00 -1.1753798636367E-01  8.0979675780878E-01
   131  1.3000000000000E+00 -1.1814263593929E-01  7.7891928235318E-01
   132  1.3100000000000E+00 -1.1828523703614E-01  7.4809214855085E-01
   133  1.3200000000000E+00 -1.1799355290951E-01  7.1738236485867E-01
   134  1.3300000000000E+00 -1.1729531769639E-01  6.8685482212841E-01
   135  1.3400000000000E+00 -1.1621815491604E-01  6.5657211143409E-01
   136  1.3500000000000E+00 -1.1478949832625E-01  6.2659435486490E-01
   137  1.3600000000000E+00 -1.1303651537807E-01  5.9697904978856E-01
   138  1.3700000000000E+00 -1.1098603352717E-01  5.6778092717674E-01
   139  1.3800000000000E+00 -1.0866446963101E-01  5.3905182442121E-01
   140  1.3900000000000E+00 -1.0609776261569E-01  5.1084057287911E-01
   141  1.4000000000000E+00 -1.0331130963867E-01  4.8319290056397E-01
   142  1.4100000000000E+00 -1.0032990587990E-01  4.5615134998847E-01
   143  1.4200000000000E+00 -9.7177688123569E-02  4.2975521130576E-01
   144  1.4300000000000E+00 -9.3878082272559E-02  4.0404047079324E-01
   145  1.4400000000000E+00 -9.0453754859473E-02  3.7903977442943E-01
   146  1.4500000000000E+00 -8.6926568698958E-02  3.5478240661796E-01
   147  1.4600000000000E+00 -8.3317542691713E-02  3.3129428360416E-01
   148  1.4700000000000E+00 -7.9646815859505E-02  3.0859796139722E-01
   149  1.4800000000000E+00 -7.5933615635224E-02  2.8671265779126E-01
   150  1.4900000000000E+00 -7.2196230384374E-02  2.6565428794099E-01
   151  1.5000000000000E+00 -6.8451986204871E-02  2.4543551315805E-01
   152  1.5100000000000E+00 -6.4717227900467E-02  2.2606580212484E-01
   153  1.5200000000000E+00 -6.1007304159220E-02  2.0755150413725E-01
   154  1.5300000000000E+00 -5.7336556806973E-02  1.8989593350382E-01
   155  1.5400000000000E+00 -5.3718314104180E-02  1.7309946452667E-01
   156  1.5500000000000E+00 -5.0164887969956E-02  1.5715963623456E-01
   157  1.5600000000000E+00 -4.6687575026497E-02  1.4207126610557E-01
   158  1.5700000000000E+00 -4.3296661365105E-02  1.2782657198318E-01
   159  1.5800000000000E+00 -4.0001430864226E-02  1.1441530131280E-01
   160  1.5900000000000E+00 -3.6810176970164E-02  1.0182486689214E-01
   161  1.6000000000000E+00 -3.3730217726280E-02  9.0040488241763E-02
   162  1.6100000000000E+00 -3.0767913958519E-02  7.9045337734549E-02
   163  1.6200000000000E+00 -2.7928690382821E-02  6.8820690647879E-02
   164  1.6300000000000E+00 -2.5217059521160E-02  5.9346078203690E-02
   165  1.6400000000000E+00 -2.2636648195867E-02  5.0599442856730E-02
   166  1.6500000000000E+00 -2.0190226459418E-02  4.2557294844740E-02
   167  1.6600000000000E+00 -1.7879738742435E-02  3.5194869363800E-02
   168  1.6700000000000E+00 -1.5706337052213E-02  2.8486283364015E-02
   169  1.6800000000000E+00 -1.3670416018794E-02  2.2404691440863E-02
   170  1.6900000000000E+00 -1.1771649602947E-02  1.6922439817086E-02
   171  1.7000000000000E+00 -1.0009029279279E-02  1.2011218026127E-02
   172  1.7100000000000E+00 -8.3809034948137E-03  7.6422072890361E-03
   173  1.7200000000000E+00 -6.8850182374935E-03  3.7862253729515E-03
   174  1.7300000000000E+00 -5.5185585007368E-03  4.1386689432431E-04
   175  1.7400000000000E+00 -4.2781905084211E-03 -2.5043609089783E-03
   176  1.7500000000000E+00 -3.1601044674390E-03 -4.9979080494517E-03
   177  1.7600000000000E+00 -2.1600577545283E-03 -7.0960569735689E-03
   178  1.7700000000000E+00 -1.2734182764483E-03 -8.8278043075454E-03
   179  1.7800000000000E+00 -4.9520796716488E-04 -1.0221748455154E-02
   180  1.7900000000000E+00  1.7985387467404E-04 -1.1305984468050E-02
   181  1.8000000000000E+00  7.5730738517443E-04 -1.2108005136217E-02
   182  1.8100000000000E+00  1.2429093874945E-03 -1.2654609740099E-02
   183  1.8200000000000E+00  1.6425910460649E-03 -1.2971819327188E-02
   184  1.8300000000000E+00  1.9624162122063E-03 -1.3084799660908E-02
   185  1.8400000000000E+00  2.2085404290173E-03 -1.3017790929465E-02
   186  1.8500000000000E+00  2.3871708149321E-03 -1.2794044832206E-02
   187  1.8600000000000E+00  2.5045268497652E-03 -1.2435768536564E-02
   188  1.8700000000000E+00  2.5668021785280E-03 -1.1964075476192E-02
   189  1.8800000000000E+00  2.5801275438642E-03 -1.1398942978184E-02
   190  1.8900000000000E+00  2.5505348325824E-03 -1.0759176027377E-02
   191  1.9000000000000E+00  2.4839224534150E-03 -1.0062377620467E-02
   192  1.9100000000000E+00  2.3860218971064E-03 -9.3249244966517E-03
   193  1.9200000000000E+00  2.2623657754073E-03 -8.5619489022779E-03
   194  1.9300000000000E+00  2.1182571464775E-03 -7.7873251560335E-03
   195  1.9400000000000E+00  1.9587403550894E-03 -7.0136612526647E-03
   196  1.9500000000000E+00  1.7885733043958E-03 -6.2522947977583E-03
   197  1.9600000000000E+00  1.6122012249686E-03 -5.5132929226418E-03
   198  1.9700000000000E+00  1.4337320017199E-03 -4.8054558442738E-03
   199  1.9800000000000E+00  1.2569129716699E-03 -4.1363235352924E-03
   200  1.9900000000000E+00  1.0851093547340E-03 -3.5121850820383E-03
   201  2.0000000000000E+00  9.2128417034822E-04 -2.9380904601932E-03
   202  2.0100000000000E+00  7.6797977342523E-04 -2.4178639996651E-03
   203  2.0200000000000E+00  6.2730093729025E-04 -1.9541194452103E-03
   204  2.0300000000000E+00  5.0089950155795E-04 -1.5482760787189E-03
   205  2.0400000000000E+00  3.8996061366582E-04 -1.2005752384432E-03
   206  2.0500000000000E+00  2.9519050086256E-04 -9.1009771951359E-04
   207  2.0600000000000E+00  2.1683988506002E-04 -6.7495276919164E-04
   208  2.0700000000000E+00  1.5457987540707E-04 -4.9171276926423E-04
   209  2.0800000000000E+00  1.0749802048719E-04 -3.5549059525889E-04
   210  2.0900000000000E+00  7.3914466422017E-05 -2.5931669920503E-04
   211  2.1000000000000E+00  5.3417655660309E-05 -2.0281143700519E-04
   212  2.1100000000000E+00  4.5104902070878E-05 -1.8439156360687E-04
   213  2.1200000000000E+00  4.2883028076074E-05 -1.8187160900681E-04
   214  2.1300000000000E+00  3.8156237090059E-05 -1.6310001835720E-04
   215  2.1400000000000E+00  2.3460780473069E-05 -1.0041257259337E-04
   216  2.1500000000000E+00  6.8903137118276E-06 -2.9442802058751E-05
   217  2.1600000000000E+00 -2.9440266303974E-06  1.2679671079352E-05
   218  2.1700000000000E+00 -3.6479506191968E-06  1.5716447471944E-05
   219  2.1800000000000E+00 -3.3362919931986E-07  1.4374461722192E-06
   220  2.1900000000000E+00  8.4917611322011E-07 -3.6727932845316E-06
   221  2.2000000000000E+00  6.2141842496317E-07 -2.6893282766735E-06
   222  2.2100000000000E+00 -4.3529435104173E-08  1.8602301315956E-07
   223  2.2200000000000E+00 -1.0973451713582E-07  4.6895038900373E-07
   224  2.2300000000000E+00 -4.2031924114338E-08  1.7962340089944E-07
   225  2.2400000000000E+00  0.0000000000000E+00  0.0000000000000E+00
   226  2.2500000000000E+00  0.0000000000000E+00  0.0000000000000E+00
   227  2.2600000000000E+00  0.0000000000000E+00  0.0000000000000E+00
   228  2.2700000000000E+00  0.0000000000000E+00  0.0000000000000E+00
   229  2.2800000000000E+00  0.0000000000000E+00  0.0000000000000E+00
   230  2.2900000000000E+00  0.0000000000000E+00  0.0000000000000E+00
   231  2.3000000000000E+00  0.0000000000000E+00  0.0000000000000E+00
   232  2.3100000000000E+00  0.0000000000000E+00  0.0000000000000E+00
   233  2.3200000000000E+00  0.0000000000000E+00  0.0000000000000E+00
   234  2.3300000000000E+00  0.0000000000000E+00  0.0000000000000E+00
   235  2.3400000000000E+00  0.0000000000000E+00  0.0000000000000E+00
   236  2.3500000000000E+00  0.0000000000000E+00  0.0000000000000E+00
   237  2.3600000000000E+00  0.0000000000000E+00  0.0000000000000E+00
   238  2.3700000000000E+00  0.0000000000000E+00  0.0000000000000E+00
   239  2.3800000000000E+00  0.0000000000000E+00  0.0000000000000E+00
   240  2.3900000000000E+00  0.0000000000000E+00  0.0000000000000E+00
   241  2.4000000000000E+00  0.0000000000000E+00  0.0000000000000E+00
   242  2.4100000000000E+00  0.0000000000000E+00  0.0000000000000E+00
   243  2.4200000000000E+00  0.0000000000000E+00  0.0000000000000E+00
   244  2.4300000000000E+00  0.0000000000000E+00  0.0000000000000E+00
   245  2.4400000000000E+00  0.0000000000000E+00  0.0000000000000E+00
   246  2.4500000000000E+00  0.0000000000000E+00  0.0000000000000E+00
   247  2.4600000000000E+00  0.0000000000000E+00  0.0000000000000E+00
   248  2.4700000000000E+00  0.0000000000000E+00  0.0000000000000E+00
   249  2.4800000000000E+00  0.0000000000000E+00  0.0000000000000E+00
   250  2.4900000000000E+00  0.0000000000000E+00  0.0000000000000E+00
   251  2.5000000000000E+00  0.0000000000000E+00  0.0000000000000E+00
   252  2.5100000000000E+00  0.0000000000000E+00  0.0000000000000E+00
   253  2.5200000000000E+00  0.0000000000000E+00  0.0000000000000E+00
   254  2.5300000000000E+00  0.0000000000000E+00  0.0000000000000E+00
   255  2.5400000000000E+00  0.0000000000000E+00  0.0000000000000E+00
   256  2.5500000000000E+00  0.0000000000000E+00  0.0000000000000E+00
   257  2.5600000000000E+00  0.0000000000000E+00  0.0000000000000E+00
   258  2.5700000000000E+00  0.0000000000000E+00  0.0000000000000E+00
   259  2.5800000000000E+00  0.0000000000000E+00  0.0000000000000E+00
   260  2.5900000000000E+00  0.0000000000000E+00  0.0000000000000E+00
   261  2.6000000000000E+00  0.0000000000000E+00  0.0000000000000E+00
   262  2.6100000000000E+00  0.0000000000000E+00  0.0000000000000E+00
   263  2.6200000000000E+00  0.0000000000000E+00  0.0000000000000E+00
   264  2.6300000000000E+00  0.0000000000000E+00  0.0000000000000E+00
   265  2.6400000000000E+00  0.0000000000000E+00  0.0000000000000E+00
   266  2.6500000000000E+00  0.0000000000000E+00  0.0000000000000E+00
   267  2.6600000000000E+00  0.0000000000000E+00  0.0000000000000E+00
   268  2.6700000000000E+00  0.0000000000000E+00  0.0000000000000E+00
   269  2.6800000000000E+00  0.0000000000000E+00  0.0000000000000E+00
   270  2.6900000000000E+00  0.0000000000000E+00  0.0000000000000E+00
   271  2.7000000000000E+00  0.0000000000000E+00  0.0000000000000E+00
   272  2.7100000000000E+00  0.0000000000000E+00  0.0000000000000E+00
   273  2.7200000000000E+00  0.0000000000000E+00  0.0000000000000E+00
   274  2.7300000000000E+00  0.0000000000000E+00  0.0000000000000E+00
   275  2.7400000000000E+00  0.0000000000000E+00  0.0000000000000E+00
   276  2.7500000000000E+00  0.0000000000000E+00  0.0000000000000E+00
   277  2.7600000000000E+00  0.0000000000000E+00  0.0000000000000E+00
   278  2.7700000000000E+00  0.0000000000000E+00  0.0000000000000E+00
   279  2.7800000000000E+00  0.0000000000000E+00  0.0000000000000E+00
   280  2.7900000000000E+00  0.0000000000000E+00  0.0000000000000E+00
   281  2.8000000000000E+00  0.0000000000000E+00  0.0000000000000E+00
   282  2.8100000000000E+00  0.0000000000000E+00  0.0000000000000E+00
   283  2.8200000000000E+00  0.0000000000000E+00  0.0000000000000E+00
   284  2.8300000000000E+00  0.0000000000000E+00  0.0000000000000E+00
   285  2.8400000000000E+00  0.0000000000000E+00  0.0000000000000E+00
   286  2.8500000000000E+00  0.0000000000000E+00  0.0000000000000E+00
   287  2.8600000000000E+00  0.0000000000000E+00  0.0000000000000E+00
   288  2.8700000000000E+00  0.0000000000000E+00  0.0000000000000E+00
   289  2.8800000000000E+00  0.0000000000000E+00  0.0000000000000E+00
   290  2.8900000000000E+00  0.0000000000000E+00  0.0000000000000E+00
   291  2.9000000000000E+00  0.0000000000000E+00  0.0000000000000E+00
   292  2.9100000000000E+00  0.0000000000000E+00  0.0000000000000E+00
   293  2.9200000000000E+00  0.0000000000000E+00  0.0000000000000E+00
   294  2.9300000000000E+00  0.0000000000000E+00  0.0000000000000E+00
   295  2.9400000000000E+00  0.0000000000000E+00  0.0000000000000E+00
   296  2.9500000000000E+00  0.0000000000000E+00  0.0000000000000E+00
   297  2.9600000000000E+00  0.0000000000000E+00  0.0000000000000E+00
   298  2.9700000000000E+00  0.0000000000000E+00  0.0000000000000E+00
   299  2.9800000000000E+00  0.0000000000000E+00  0.0000000000000E+00
   300  2.9900000000000E+00  0.0000000000000E+00  0.0000000000000E+00
   301  3.0000000000000E+00  0.0000000000000E+00  0.0000000000000E+00
   302  3.0100000000000E+00  0.0000000000000E+00  0.0000000000000E+00
   303  3.0200000000000E+00  0.0000000000000E+00  0.0000000000000E+00
   304  3.0300000000000E+00  0.0000000000000E+00  0.0000000000000E+00
   305  3.0400000000000E+00  0.0000000000000E+00  0.0000000000000E+00
   306  3.0500000000000E+00  0.0000000000000E+00  0.0000000000000E+00
   307  3.0600000000000E+00  0.0000000000000E+00  0.0000000000000E+00
   308  3.0700000000000E+00  0.0000000000000E+00  0.0000000000000E+00
   309  3.0800000000000E+00  0.0000000000000E+00  0.0000000000000E+00
   310  3.0900000000000E+00  0.0000000000000E+00  0.0000000000000E+00
   311  3.1000000000000E+00  0.0000000000000E+00  0.0000000000000E+00
   312  3.1100000000000E+00  0.0000000000000E+00  0.0000000000000E+00
   313  3.1200000000000E+00  0.0000000000000E+00  0.0000000000000E+00
   314  3.1300000000000E+00  0.0000000000000E+00  0.0000000000000E+00
   315  3.1400000000000E+00  0.0000000000000E+00  0.0000000000000E+00
   316  3.1500000000000E+00  0.0000000000000E+00  0.0000000000000E+00
   317  3.1600000000000E+00  0.0000000000000E+00  0.0000000000000E+00
   318  3.1700000000000E+00  0.0000000000000E+00  0.0000000000000E+00
   319  3.1800000000000E+00  0.0000000000000E+00  0.0000000000000E+00
   320  3.1900000000000E+00  0.0000000000000E+00  0.0000000000000E+00
   321  3.2000000000000E+00  0.0000000000000E+00  0.0000000000000E+00
   322  3.2100000000000E+00  0.0000000000000E+00  0.0000000000000E+00
   323  3.2200000000000E+00  0.0000000000000E+00  0.0000000000000E+00
   324  3.2300000000000E+00  0.0000000000000E+00  0.0000000000000E+00
   325  3.2400000000000E+00  0.0000000000000E+00  0.0000000000000E+00
   326  3.2500000000000E+00  0.0000000000000E+00  0.0000000000000E+00
   327  3.2600000000000E+00  0.0000000000000E+00  0.0000000000000E+00
   328  3.2700000000000E+00  0.0000000000000E+00  0.0000000000000E+00
   329  3.2800000000000E+00  0.0000000000000E+00  0.0000000000000E+00
   330  3.2900000000000E+00  0.0000000000000E+00  0.0000000000000E+00
   331  3.3000000000000E+00  0.0000000000000E+00  0.0000000000000E+00
   332  3.3100000000000E+00  0.0000000000000E+00  0.0000000000000E+00
   333  3.3200000000000E+00  0.0000000000000E+00  0.0000000000000E+00
   334  3.3300000000000E+00  0.0000000000000E+00  0.0000000000000E+00
   335  3.3400000000000E+00  0.0000000000000E+00  0.0000000000000E+00
   336  3.3500000000000E+00  0.0000000000000E+00  0.0000000000000E+00
   337  3.3600000000000E+00  0.0000000000000E+00  0.0000000000000E+00
   338  3.3700000000000E+00  0.0000000000000E+00  0.0000000000000E+00
   339  3.3800000000000E+00  0.0000000000000E+00  0.0000000000000E+00
   340  3.3900000000000E+00  0.0000000000000E+00  0.0000000000000E+00
   341  3.4000000000000E+00  0.0000000000000E+00  0.0000000000000E+00
   342  3.4100000000000E+00  0.0000000000000E+00  0.0000000000000E+00
   343  3.4200000000000E+00  0.0000000000000E+00  0.0000000000000E+00
   344  3.4300000000000E+00  0.0000000000000E+00  0.0000000000000E+00
   345  3.4400000000000E+00  0.0000000000000E+00  0.0000000000000E+00
   346  3.4500000000000E+00  0.0000000000000E+00  0.0000000000000E+00
   347  3.4600000000000E+00  0.0000000000000E+00  0.0000000000000E+00
   348  3.4700000000000E+00  0.0000000000000E+00  0.0000000000000E+00
   349  3.4800000000000E+00  0.0000000000000E+00  0.0000000000000E+00
   350  3.4900000000000E+00  0.0000000000000E+00  0.0000000000000E+00
   351  3.5000000000000E+00  0.0000000000000E+00  0.0000000000000E+00
   352  3.5100000000000E+00  0.0000000000000E+00  0.0000000000000E+00
   353  3.5200000000000E+00  0.0000000000000E+00  0.0000000000000E+00
   354  3.5300000000000E+00  0.0000000000000E+00  0.0000000000000E+00
   355  3.5400000000000E+00  0.0000000000000E+00  0.0000000000000E+00
   356  3.5500000000000E+00  0.0000000000000E+00  0.0000000000000E+00
   357  3.5600000000000E+00  0.0000000000000E+00  0.0000000000000E+00
   358  3.5700000000000E+00  0.0000000000000E+00  0.0000000000000E+00
   359  3.5800000000000E+00  0.0000000000000E+00  0.0000000000000E+00
   360  3.5900000000000E+00  0.0000000000000E+00  0.0000000000000E+00
   361  3.6000000000000E+00  0.0000000000000E+00  0.0000000000000E+00
   362  3.6100000000000E+00  0.0000000000000E+00  0.0000000000000E+00
   363  3.6200000000000E+00  0.0000000000000E+00  0.0000000000000E+00
   364  3.6300000000000E+00  0.0000000000000E+00  0.0000000000000E+00
   365  3.6400000000000E+00  0.0000000000000E+00  0.0000000000000E+00
   366  3.6500000000000E+00  0.0000000000000E+00  0.0000000000000E+00
   367  3.6600000000000E+00  0.0000000000000E+00  0.0000000000000E+00
   368  3.6700000000000E+00  0.0000000000000E+00  0.0000000000000E+00
   369  3.6800000000000E+00  0.0000000000000E+00  0.0000000000000E+00
   370  3.6900000000000E+00  0.0000000000000E+00  0.0000000000000E+00
   371  3.7000000000000E+00  0.0000000000000E+00  0.0000000000000E+00
   372  3.7100000000000E+00  0.0000000000000E+00  0.0000000000000E+00
   373  3.7200000000000E+00  0.0000000000000E+00  0.0000000000000E+00
   374  3.7300000000000E+00  0.0000000000000E+00  0.0000000000000E+00
   375  3.7400000000000E+00  0.0000000000000E+00  0.0000000000000E+00
   376  3.7500000000000E+00  0.0000000000000E+00  0.0000000000000E+00
   377  3.7600000000000E+00  0.0000000000000E+00  0.0000000000000E+00
   378  3.7700000000000E+00  0.0000000000000E+00  0.0000000000000E+00
   379  3.7800000000000E+00  0.0000000000000E+00  0.0000000000000E+00
   380  3.7900000000000E+00  0.0000000000000E+00  0.0000000000000E+00
   381  3.8000000000000E+00  0.0000000000000E+00  0.0000000000000E+00
   382  3.8100000000000E+00  0.0000000000000E+00  0.0000000000000E+00
   383  3.8200000000000E+00  0.0000000000000E+00  0.0000000000000E+00
   384  3.8300000000000E+00  0.0000000000000E+00  0.0000000000000E+00
   385  3.8400000000000E+00  0.0000000000000E+00  0.0000000000000E+00
   386  3.8500000000000E+00  0.0000000000000E+00  0.0000000000000E+00
   387  3.8600000000000E+00  0.0000000000000E+00  0.0000000000000E+00
   388  3.8700000000000E+00  0.0000000000000E+00  0.0000000000000E+00
   389  3.8800000000000E+00  0.0000000000000E+00  0.0000000000000E+00
   390  3.8900000000000E+00  0.0000000000000E+00  0.0000000000000E+00
   391  3.9000000000000E+00  0.0000000000000E+00  0.0000000000000E+00
   392  3.9100000000000E+00  0.0000000000000E+00  0.0000000000000E+00
   393  3.9200000000000E+00  0.0000000000000E+00  0.0000000000000E+00
   394  3.9300000000000E+00  0.0000000000000E+00  0.0000000000000E+00
   395  3.9400000000000E+00  0.0000000000000E+00  0.0000000000000E+00
   396  3.9500000000000E+00  0.0000000000000E+00  0.0000000000000E+00
   397  3.9600000000000E+00  0.0000000000000E+00  0.0000000000000E+00
   398  3.9700000000000E+00  0.0000000000000E+00  0.0000000000000E+00
   399  3.9800000000000E+00  0.0000000000000E+00  0.0000000000000E+00
   400  3.9900000000000E+00  0.0000000000000E+00  0.0000000000000E+00
   401  4.0000000000000E+00  0.0000000000000E+00  0.0000000000000E+00
   402  4.0100000000000E+00  0.0000000000000E+00  0.0000000000000E+00
   403  4.0200000000000E+00  0.0000000000000E+00  0.0000000000000E+00
   404  4.0300000000000E+00  0.0000000000000E+00  0.0000000000000E+00
   405  4.0400000000000E+00  0.0000000000000E+00  0.0000000000000E+00
   406  4.0500000000000E+00  0.0000000000000E+00  0.0000000000000E+00
   407  4.0600000000000E+00  0.0000000000000E+00  0.0000000000000E+00
   408  4.0700000000000E+00  0.0000000000000E+00  0.0000000000000E+00
   409  4.0800000000000E+00  0.0000000000000E+00  0.0000000000000E+00
   410  4.0900000000000E+00  0.0000000000000E+00  0.0000000000000E+00
   411  4.1000000000000E+00  0.0000000000000E+00  0.0000000000000E+00
   412  4.1100000000000E+00  0.0000000000000E+00  0.0000000000000E+00
   413  4.1200000000000E+00  0.0000000000000E+00  0.0000000000000E+00
   414  4.1300000000000E+00  0.0000000000000E+00  0.0000000000000E+00
   415  4.1400000000000E+00  0.0000000000000E+00  0.0000000000000E+00
   416  4.1500000000000E+00  0.0000000000000E+00  0.0000000000000E+00
   417  4.1600000000000E+00  0.0000000000000E+00  0.0000000000000E+00
   418  4.1700000000000E+00  0.0000000000000E+00  0.0000000000000E+00
   419  4.1800000000000E+00  0.0000000000000E+00  0.0000000000000E+00
   420  4.1900000000000E+00  0.0000000000000E+00  0.0000000000000E+00
   421  4.2000000000000E+00  0.0000000000000E+00  0.0000000000000E+00
   422  4.2100000000000E+00  0.0000000000000E+00  0.0000000000000E+00
   423  4.2200000000000E+00  0.0000000000000E+00  0.0000000000000E+00