:MDSTEP: 5
:R:
  1.7295259202E-02   6.0669573116E+00   8.2903028016E-02
  2.8768414016E-02   9.3436305916E-02   3.1266519306E+00
  6.9247683000E-02   3.1728978750E+00   6.0120190654E+00
  1.0501276345E-01   3.1007838547E+00   3.1026585428E+00
  3.0906756652E+00   2.4667018288E-02   3.3292988026E-02
  3.1599483320E+00   6.0706828220E+00   3.0747538017E+00
  3.1230583204E+00   3.1797209191E+00   6.8021576422E-02
  3.1059949197E+00   3.1460335453E+00   3.0429324483E+00
  6.1633732934E+00   6.0659728079E+00   5.5911763655E-02
  6.1888470125E+00   6.0515482868E+00   3.0635639772E+00
  6.0955779139E+00   3.0420158871E+00   1.5745432261E-01
  6.1858984503E+00   3.0827221561E+00   2.9934089553E+00
  9.2490576127E+00   2.1484281783E-02   6.1834765727E-02
  9.0662580090E+00   5.9796391293E+00   3.0520621887E+00
  9.2147457361E+00   3.0167097187E+00   1.6391859379E-02
  9.2685335712E+00   3.0418865351E+00   2.9519817419E+00
:V:
  5.4858433620E-05  -1.0853195541E-04   6.4138200728E-04
 -5.1121275776E-05   4.2176250307E-04   3.1387655284E-04
  2.8174923542E-05   7.8991232646E-04  -6.6146224524E-04
 -1.1424155146E-04   2.1940160918E-04   3.8525103701E-04
 -6.4853382541E-04  -2.1538056852E-04   1.0190749527E-04
  1.0382914147E-03  -5.0416302832E-04  -9.6086617977E-05
 -3.2914508641E-04   1.1904226782E-03   1.9863838156E-04
 -4.8467947588E-04   6.8970023735E-04  -6.2479258341E-05
  3.1550985493E-04  -2.0568373777E-04   2.2076778984E-04
  1.1844092348E-04  -6.3710434071E-04   1.5166795535E-05
  4.3015055409E-05  -4.9001471284E-06   1.1267239189E-03
  6.2690989450E-04   2.6887518284E-04  -7.8932978445E-04
  2.3328231579E-04   2.1236476916E-04   1.4541849003E-04
 -1.4659174824E-03  -1.0172495320E-03   2.5830470499E-05
 -2.1303798143E-04  -7.1493415563E-04  -3.2075893215E-04
  7.9214877325E-04  -4.4722729119E-04  -1.2492418387E-03
:TEL:   7.8839192001E+02
:TIO:   7.8839192001E+02
