C     ONCVPSP-4.0.1  r_core=   1.42727   1.39353
      6.0000      4.0000      190823    zatom,zion,pspd
     8      11   1     4   600     0    pspcod,pspxc,lmax,lloc,mmax,r2well
  5.99000000  0.00000000  0.00000000    rchrg fchrg qchrg
     2     2     0     0     0    nproj
     1     1           extension_switch
   0                         7.5719117095344E+00  8.8957411210503E-01
     1  0.0000000000000E+00  5.6597261322011E-09 -2.1586354842507E-08
     2  1.0000000000000E-02  4.9601190144030E-02  4.1585012370235E-02
     3  2.0000000000000E-02  9.9373994824132E-02  8.2124731995556E-02
     4  3.0000000000000E-02  1.4948536119386E-01  1.2059291889424E-01
     5  4.0000000000000E-02  2.0009298534872E-01  1.5600111216560E-01
     6  5.0000000000000E-02  2.5134089458386E-01  1.8741670905877E-01
     7  6.0000000000000E-02  3.0335527487641E-01  2.1398008717272E-01
     8  7.0000000000000E-02  3.5624061854769E-01  2.3492047669803E-01
     9  8.0000000000000E-02  4.1007626140082E-01  2.4957031119737E-01
    10  9.0000000000000E-02  4.6491337174767E-01  2.5737781168449E-01
    11  1.0000000000000E-01  5.2077244575976E-01  2.5791758924157E-01
    12  1.1000000000000E-01  5.7764135464266E-01  2.5089908557512E-01
    13  1.2000000000000E-01  6.3547397940500E-01  2.3617270815391E-01
    14  1.3000000000000E-01  6.9418945864376E-01  2.1373355624470E-01
    15  1.4000000000000E-01  7.5367206398464E-01  1.8372267556750E-01
    16  1.5000000000000E-01  8.1377170679205E-01  1.4642582170717E-01
    17  1.6000000000000E-01  8.7430506869578E-01  1.0226975509941E-01
    18  1.7000000000000E-01  9.3505733756801E-01  5.1816132610732E-02
    19  1.8000000000000E-01  9.9578452002130E-01 -4.2468982832159E-03
    20  1.9000000000000E-01  1.0562162914723E+00 -6.5115257662944E-02
    21  2.0000000000000E-01  1.1160593355075E+00 -1.2988146217316E-01
    22  2.1000000000000E-01  1.1750011158588E+00 -1.9754891017277E-01
    23  2.2000000000000E-01  1.2327140169031E+00 -2.6704767894292E-01
    24  2.3000000000000E-01  1.2888597823600E+00 -3.3725156480792E-01
    25  2.4000000000000E-01  1.3430941768990E+00 -4.0699607671302E-01
    26  2.5000000000000E-01  1.3950717917536E+00 -4.7509707858343E-01
    27  2.6000000000000E-01  1.4444509132432E+00 -5.4036976591379E-01
    28  2.7000000000000E-01  1.4908983723573E+00 -6.0164765766026E-01
    29  2.8000000000000E-01  1.5340942942650E+00 -6.5780128568715E-01
    30  2.9000000000000E-01  1.5737366687630E+00 -7.0775627071342E-01
    31  3.0000000000000E-01  1.6095456662168E+00 -7.5051048577076E-01
    32  3.1000000000000E-01  1.6412676284137E+00 -7.8515002538928E-01
    33  3.2000000000000E-01  1.6686786698410E+00 -8.1086372073951E-01
    34  3.3000000000000E-01  1.6915878321027E+00 -8.2695596736863E-01
    35  3.4000000000000E-01  1.7098397423679E+00 -8.3285766248369E-01
    36  3.5000000000000E-01  1.7233167357377E+00 -8.2813508239606E-01
    37  3.6000000000000E-01  1.7319404110609E+00 -8.1249656713121E-01
    38  3.7000000000000E-01  1.7356725998425E+00 -7.8579691766285E-01
    39  3.8000000000000E-01  1.7345157382786E+00 -7.4803945105179E-01
    40  3.9000000000000E-01  1.7285126429309E+00 -6.9937569923523E-01
    41  4.0000000000000E-01  1.7177457009198E+00 -6.4010277759683E-01
    42  4.1000000000000E-01  1.7023354955873E+00 -5.7065848902237E-01
    43  4.2000000000000E-01  1.6824388981660E+00 -4.9161426721246E-01
    44  4.3000000000000E-01  1.6582466649165E+00 -4.0366609890133E-01
    45  4.4000000000000E-01  1.6299805873051E+00 -3.0762359769611E-01
    46  4.5000000000000E-01  1.5978902499350E+00 -2.0439743192661E-01
    47  4.6000000000000E-01  1.5622494570005E+00 -9.4985334674047E-02
    48  4.7000000000000E-01  1.5233523928908E+00  1.9543054402370E-02
    49  4.8000000000000E-01  1.4815095861591E+00  1.3806224905215E-01
    50  4.9000000000000E-01  1.4370437483248E+00  2.5940760001122E-01
    51  5.0000000000000E-01  1.3902855598784E+00  3.8239231722270E-01
    52  5.1000000000000E-01  1.3415694753906E+00  5.0582454419784E-01
    53  5.2000000000000E-01  1.2912296178237E+00  6.2852420160996E-01
    54  5.3000000000000E-01  1.2395958290531E+00  7.4933932582792E-01
    55  5.4000000000000E-01  1.1869899392954E+00  8.6716164151644E-01
    56  5.5000000000000E-01  1.1337223127170E+00  9.8094112534691E-01
    57  5.6000000000000E-01  1.0800887200726E+00  1.0896993398869E+00
    58  5.7000000000000E-01  1.0263675819352E+00  1.1925413424053E+00
    59  5.8000000000000E-01  9.7281761808984E-01  1.2886660021146E+00
    60  5.9000000000000E-01  9.1967593012707E-01  1.3773745906854E+00
    61  6.0000000000000E-01  8.6715653537231E-01  1.4580775440914E+00
    62  6.1000000000000E-01  8.1544936120611E-01  1.5302993283140E+00
    63  6.2000000000000E-01  7.6471969974641E-01  1.5936813764814E+00
    64  6.3000000000000E-01  7.1510811396539E-01  1.6479830999635E+00
    65  6.4000000000000E-01  6.6673077777418E-01  1.6930810101220E+00
    66  6.5000000000000E-01  6.1968022459817E-01  1.7289660201762E+00
    67  6.6000000000000E-01  5.7402647164042E-01  1.7557390273858E+00
    68  6.7000000000000E-01  5.2981848053077E-01  1.7736049039031E+00
    69  6.8000000000000E-01  4.8708590950717E-01  1.7828650497072E+00
    70  6.9000000000000E-01  4.4584110777516E-01  1.7839086825633E+00
    71  7.0000000000000E-01  4.0608129932117E-01  1.7772030575884E+00
    72  7.1000000000000E-01  3.6779090127048E-01  1.7632828224707E+00
    73  7.2000000000000E-01  3.3094392091228E-01  1.7427387234905E+00
    74  7.3000000000000E-01  2.9550637576573E-01  1.7162058821253E+00
    75  7.4000000000000E-01  2.6143868251341E-01  1.6843518621699E+00
    76  7.5000000000000E-01  2.2869796323363E-01  1.6478647430581E+00
    77  7.6000000000000E-01  1.9724022105374E-01  1.6074414065859E+00
    78  7.7000000000000E-01  1.6702234202877E-01  1.5637762317675E+00
    79  7.8000000000000E-01  1.3800388561288E-01  1.5175503764311E+00
    80  7.9000000000000E-01  1.1014863240409E-01  1.4694218047738E+00
    81  8.0000000000000E-01  8.3425864762837E-02  1.4200161979105E+00
    82  8.1000000000000E-01  5.7811363274370E-02  1.3699188600037E+00
    83  8.2000000000000E-01  3.3288109643500E-02  1.3196677049846E+00
    84  8.3000000000000E-01  9.8466928858536E-03  1.2697473219236E+00
    85  8.4000000000000E-01 -1.2514605262376E-02  1.2205821025687E+00
    86  8.5000000000000E-01 -3.3789905540266E-02  1.1725289209500E+00
    87  8.6000000000000E-01 -5.3965905627042E-02  1.1258754239934E+00
    88  8.7000000000000E-01 -7.3022349511049E-02  1.0808410122051E+00
    89  8.8000000000000E-01 -9.0932818442009E-02  1.0375792759368E+00
    90  8.9000000000000E-01 -1.0766581031617E-01  9.9618166200901E-01
    91  9.0000000000000E-01 -1.2318606303097E-01  9.5668217545300E-01
    92  9.1000000000000E-01 -1.3745607070279E-01  9.1906293548138E-01
    93  9.2000000000000E-01 -1.5043773808873E-01  8.8326041173905E-01
    94  9.3000000000000E-01 -1.6209411724694E-01  8.4917217052479E-01
    95  9.4000000000000E-01 -1.7239117086597E-01  8.1666396294106E-01
    96  9.5000000000000E-01 -1.8129950843579E-01  7.8557698943133E-01
    97  9.6000000000000E-01 -1.8879604434557E-01  7.5573517984117E-01
    98  9.7000000000000E-01 -1.9486553084355E-01  7.2695233411027E-01
    99  9.8000000000000E-01 -1.9950192353944E-01  6.9903897802828E-01
   100  9.9000000000000E-01 -2.0270954254256E-01  6.7180879929718E-01
   101  1.0000000000000E+00 -2.0450399841186E-01  6.4508454338664E-01
   102  1.0100000000000E+00 -2.0491285857119E-01  6.1870326389992E-01
   103  1.0200000000000E+00 -2.0397603674232E-01  5.9252084028735E-01
   104  1.0300000000000E+00 -2.0174589496901E-01  5.6641569426860E-01
   105  1.0400000000000E+00 -1.9828705498163E-01  5.4029165697286E-01
   106  1.0500000000000E+00 -1.9367592262883E-01  5.1407995871026E-01
   107  1.0600000000000E+00 -1.8799993600918E-01  4.8774033483474E-01
   108  1.0700000000000E+00 -1.8135655432163E-01  4.6126126078838E-01
   109  1.0800000000000E+00 -1.7385201052202E-01  4.3465934976523E-01
   110  1.0900000000000E+00 -1.6559985618380E-01  4.0797796421672E-01
   111  1.1000000000000E+00 -1.5671933171530E-01  3.8128510989232E-01
   112  1.1100000000000E+00 -1.4733359888206E-01  3.5467069529582E-01
   113  1.1200000000000E+00 -1.3756787566982E-01  3.2824325273120E-01
   114  1.1300000000000E+00 -1.2754751554364E-01  3.0212622676060E-01
   115  1.1400000000000E+00 -1.1739607426943E-01  2.7645394335037E-01
   116  1.1500000000000E+00 -1.0723340764872E-01  2.5136737799403E-01
   117  1.1600000000000E+00 -9.7173842560215E-02  2.2700984201919E-01
   118  1.1700000000000E+00 -8.7324462028875E-02  2.0352270607708E-01
   119  1.1800000000000E+00 -7.7783542196750E-02  1.8104127483120E-01
   120  1.1900000000000E+00 -6.8639175638625E-02  1.5969092108527E-01
   121  1.2000000000000E+00 -5.9968111087497E-02  1.3958357795502E-01
   122  1.2100000000000E+00 -5.1834834672147E-02  1.2081467639701E-01
   123  1.2200000000000E+00 -4.4290912319964E-02  1.0346060258959E-01
   124  1.2300000000000E+00 -3.7374606948255E-02  8.7576734122961E-02
   125  1.2400000000000E+00 -3.1110777975963E-02  7.3196098825159E-02
   126  1.2500000000000E+00 -2.5511064179480E-02  6.0328682283134E-02
   127  1.2600000000000E+00 -2.0574344695795E-02  4.8961393817173E-02
   128  1.2700000000000E+00 -1.6287466633353E-02  3.9058682888253E-02
   129  1.2800000000000E+00 -1.2626221809085E-02  3.0563781249778E-02
   130  1.2900000000000E+00 -9.5565496655146E-03  2.3400530783575E-02
   131  1.3000000000000E+00 -7.0359382271727E-03  1.7475741363321E-02
   132  1.3100000000000E+00 -5.0149907469769E-03  1.2682010931735E-02
   133  1.3200000000000E+00 -3.4391218995402E-03  8.9009279609233E-03
   134  1.3300000000000E+00 -2.2503454516309E-03  6.0065710844457E-03
   135  1.3400000000000E+00 -1.3891009704970E-03  3.8691644382173E-03
   136  1.3500000000000E+00 -7.9614107048135E-04  2.3590385171890E-03
   137  1.3600000000000E+00 -4.1368761550333E-04  1.3478109386045E-03
   138  1.3700000000000E+00 -1.8501055287490E-04  7.0310865794940E-04
   139  1.3800000000000E+00 -6.4059540780240E-05  3.2428201300574E-04
   140  1.3900000000000E+00 -1.2118760856519E-05  1.2690496568063E-04
   141  1.4000000000000E+00  2.2256131663903E-06  4.0237134731345E-05
   142  1.4100000000000E+00  1.8315690987218E-06  1.0200190691446E-05
   143  1.4200000000000E+00  2.9965292055335E-08  1.7160216641937E-06
   144  1.4300000000000E+00  2.3912249686625E-08 -1.3870311419702E-07
   145  1.4400000000000E+00 -2.2129804881828E-09  3.4805618088103E-08
   146  1.45 -0. -0.
   147  1.46 -0.  0.
   148  1.47  0.  0.
   149  1.48  0.  0.
   150  1.49  0.  0.
   151  1.50  0.  0.
   152  1.51  0.  0.
   153  1.52  0.  0.
   154  1.53  0.  0.
   155  1.54  0.  0.
   156  1.55  0.  0.
   157  1.56  0.  0.
   158  1.57  0.  0.
   159  1.58  0.  0.
   160  1.59  0.  0.
   161  1.60  0.  0.
   162  1.61  0.  0.
   163  1.62  0.  0.
   164  1.63  0.  0.
   165  1.64  0.  0.
   166  1.65  0.  0.
   167  1.66  0.  0.
   168  1.67  0.  0.
   169  1.68  0.  0.
   170  1.69  0.  0.
   171  1.70  0.  0.
   172  1.71  0.  0.
   173  1.72  0.  0.
   174  1.73  0.  0.
   175  1.74  0.  0.
   176  1.75  0.  0.
   177  1.76  0.  0.
   178  1.77  0.  0.
   179  1.78  0.  0.
   180  1.79  0.  0.
   181  1.80  0.  0.
   182  1.81  0.  0.
   183  1.82  0.  0.
   184  1.83  0.  0.
   185  1.84  0.  0.
   186  1.85  0.  0.
   187  1.86  0.  0.
   188  1.87  0.  0.
   189  1.88  0.  0.
   190  1.89  0.  0.
   191  1.90  0.  0.
   192  1.91  0.  0.
   193  1.92  0.  0.
   194  1.93  0.  0.
   195  1.94  0.  0.
   196  1.95  0.  0.
   197  1.96  0.  0.
   198  1.97  0.  0.
   199  1.98  0.  0.
   200  1.99  0.  0.
   201  2.00  0.  0.
   202  2.01  0.  0.
   203  2.02  0.  0.
   204  2.03  0.  0.
   205  2.04  0.  0.
   206  2.05  0.  0.
   207  2.06  0.  0.
   208  2.07  0.  0.
   209  2.08  0.  0.
   210  2.09  0.  0.
   211  2.10  0.  0.
   212  2.11  0.  0.
   213  2.12  0.  0.
   214  2.13  0.  0.
   215  2.14  0.  0.
   216  2.15  0.  0.
   217  2.16  0.  0.
   218  2.17  0.  0.
   219  2.18  0.  0.
   220  2.19  0.  0.
   221  2.20  0.  0.
   222  2.21  0.  0.
   223  2.22  0.  0.
   224  2.23  0.  0.
   225  2.24  0.  0.
   226  2.25  0.  0.
   227  2.26  0.  0.
   228  2.27  0.  0.
   229  2.28  0.  0.
   230  2.29  0.  0.
   231  2.30  0.  0.
   232  2.31  0.  0.
   233  2.32  0.  0.
   234  2.33  0.  0.
   235  2.34  0.  0.
   236  2.35  0.  0.
   237  2.36  0.  0.
   238  2.37  0.  0.
   239  2.38  0.  0.
   240  2.39  0.  0.
   241  2.40  0.  0.
   242  2.41  0.  0.
   243  2.42  0.  0.
   244  2.43  0.  0.
   245  2.44  0.  0.
   246  2.45  0.  0.
   247  2.46  0.  0.
   248  2.47  0.  0.
   249  2.48  0.  0.
   250  2.49  0.  0.
   251  2.50  0.  0.
   252  2.51  0.  0.
   253  2.52  0.  0.
   254  2.53  0.  0.
   255  2.54  0.  0.
   256  2.55  0.  0.
   257  2.56  0.  0.
   258  2.57  0.  0.
   259  2.58  0.  0.
   260  2.59  0.  0.
   261  2.60  0.  0.
   262  2.61  0.  0.
   263  2.62  0.  0.
   264  2.63  0.  0.
   265  2.64  0.  0.
   266  2.65  0.  0.
   267  2.66  0.  0.
   268  2.67  0.  0.
   269  2.68  0.  0.
   270  2.69  0.  0.
   271  2.70  0.  0.
   272  2.71  0.  0.
   273  2.72  0.  0.
   274  2.73  0.  0.
   275  2.74  0.  0.
   276  2.75  0.  0.
   277  2.76  0.  0.
   278  2.77  0.  0.
   279  2.78  0.  0.
   280  2.79  0.  0.
   281  2.80  0.  0.
   282  2.81  0.  0.
   283  2.82  0.  0.
   284  2.83  0.  0.
   285  2.84  0.  0.
   286  2.85  0.  0.
   287  2.86  0.  0.
   288  2.87  0.  0.
   289  2.88  0.  0.
   290  2.89  0.  0.
   291  2.90  0.  0.
   292  2.91  0.  0.
   293  2.92  0.  0.
   294  2.93  0.  0.
   295  2.94  0.  0.
   296  2.95  0.  0.
   297  2.96  0.  0.
   298  2.97  0.  0.
   299  2.98  0.  0.
   300  2.99  0.  0.
   301  3.00  0.  0.
   302  3.01  0.  0.
   303  3.02  0.  0.
   304  3.03  0.  0.
   305  3.04  0.  0.
   306  3.05  0.  0.
   307  3.06  0.  0.
   308  3.07  0.  0.
   309  3.08  0.  0.
   310  3.09  0.  0.
   311  3.10  0.  0.
   312  3.11  0.  0.
   313  3.12  0.  0.
   314  3.13  0.  0.
   315  3.14  0.  0.
   316  3.15  0.  0.
   317  3.16  0.  0.
   318  3.17  0.  0.
   319  3.18  0.  0.
   320  3.19  0.  0.
   321  3.20  0.  0.
   322  3.21  0.  0.
   323  3.22  0.  0.
   324  3.23  0.  0.
   325  3.24  0.  0.
   326  3.25  0.  0.
   327  3.26  0.  0.
   328  3.27  0.  0.
   329  3.28  0.  0.
   330  3.29  0.  0.
   331  3.30  0.  0.
   332  3.31  0.  0.
   333  3.32  0.  0.
   334  3.33  0.  0.
   335  3.34  0.  0.
   336  3.35  0.  0.
   337  3.36  0.  0.
   338  3.37  0.  0.
   339  3.38  0.  0.
   340  3.39  0.  0.
   341  3.40  0.  0.
   342  3.41  0.  0.
   343  3.42  0.  0.
   344  3.43  0.  0.
   345  3.44  0.  0.
   346  3.45  0.  0.
   347  3.46  0.  0.
   348  3.47  0.  0.
   349  3.48  0.  0.
   350  3.49  0.  0.
   351  3.50  0.  0.
   352  3.51  0.  0.
   353  3.52  0.  0.
   354  3.53  0.  0.
   355  3.54  0.  0.
   356  3.55  0.  0.
   357  3.56  0.  0.
   358  3.57  0.  0.
   359  3.58  0.  0.
   360  3.59  0.  0.
   361  3.60  0.  0.
   362  3.61  0.  0.
   363  3.62  0.  0.
   364  3.63  0.  0.
   365  3.64  0.  0.
   366  3.65  0.  0.
   367  3.66  0.  0.
   368  3.67  0.  0.
   369  3.68  0.  0.
   370  3.69  0.  0.
   371  3.70  0.  0.
   372  3.71  0.  0.
   373  3.72  0.  0.
   374  3.73  0.  0.
   375  3.74  0.  0.
   376  3.75  0.  0.
   377  3.76  0.  0.
   378  3.77  0.  0.
   379  3.78  0.  0.
   380  3.79  0.  0.
   381  3.80  0.  0.
   382  3.81  0.  0.
   383  3.82  0.  0.
   384  3.83  0.  0.
   385  3.84  0.  0.
   386  3.85  0.  0.
   387  3.86  0.  0.
   388  3.87  0.  0.
   389  3.88  0.  0.
   390  3.89  0.  0.
   391  3.90  0.  0.
   392  3.91  0.  0.
   393  3.92  0.  0.
   394  3.93  0.  0.
   395  3.94  0.  0.
   396  3.95  0.  0.
   397  3.96  0.  0.
   398  3.97  0.  0.
   399  3.98  0.  0.
   400  3.99  0.  0.
   401  4.00  0.  0.
   402  4.01  0.  0.
   403  4.02  0.  0.
   404  4.03  0.  0.
   405  4.04  0.  0.
   406  4.05  0.  0.
   407  4.06  0.  0.
   408  4.07  0.  0.
   409  4.08  0.  0.
   410  4.09  0.  0.
   411  4.10  0.  0.
   412  4.11  0.  0.
   413  4.12  0.  0.
   414  4.13  0.  0.
   415  4.14  0.  0.
   416  4.15  0.  0.
   417  4.16  0.  0.
   418  4.17  0.  0.
   419  4.18  0.  0.
   420  4.19  0.  0.
   421  4.20  0.  0.
   422  4.21  0.  0.
   423  4.22  0.  0.
   424  4.23  0.  0.
   425  4.24  0.  0.
   426  4.25  0.  0.
   427  4.26  0.  0.
   428  4.27  0.  0.
   429  4.28  0.  0.
   430  4.29  0.  0.
   431  4.30  0.  0.
   432  4.31  0.  0.
   433  4.32  0.  0.
   434  4.33  0.  0.
   435  4.34  0.  0.
   436  4.35  0.  0.
   437  4.36  0.  0.
   438  4.37  0.  0.
   439  4.38  0.  0.
   440  4.39  0.  0.
   441  4.40  0.  0.
   442  4.41  0.  0.
   443  4.42  0.  0.
   444  4.43  0.  0.
   445  4.44  0.  0.
   446  4.45  0.  0.
   447  4.46  0.  0.
   448  4.47  0.  0.
   449  4.48  0.  0.
   450  4.49  0.  0.
   451  4.50  0.  0.
   452  4.51  0.  0.
   453  4.52  0.  0.
   454  4.53  0.  0.
   455  4.54  0.  0.
   456  4.55  0.  0.
   457  4.56  0.  0.
   458  4.57  0.  0.
   459  4.58  0.  0.
   460  4.59  0.  0.
   461  4.60  0.  0.
   462  4.61  0.  0.
   463  4.62  0.  0.
   464  4.63  0.  0.
   465  4.64  0.  0.
   466  4.65  0.  0.
   467  4.66  0.  0.
   468  4.67  0.  0.
   469  4.68  0.  0.
   470  4.69  0.  0.
   471  4.70  0.  0.
   472  4.71  0.  0.
   473  4.72  0.  0.
   474  4.73  0.  0.
   475  4.74  0.  0.
   476  4.75  0.  0.
   477  4.76  0.  0.
   478  4.77  0.  0.
   479  4.78  0.  0.
   480  4.79  0.  0.
   481  4.80  0.  0.
   482  4.81  0.  0.
   483  4.82  0.  0.
   484  4.83  0.  0.
   485  4.84  0.  0.
   486  4.85  0.  0.
   487  4.86  0.  0.
   488  4.87  0.  0.
   489  4.88  0.  0.
   490  4.89  0.  0.
   491  4.90  0.  0.
   492  4.91  0.  0.
   493  4.92  0.  0.
   494  4.93  0.  0.
   495  4.94  0.  0.
   496  4.95  0.  0.
   497  4.96  0.  0.
   498  4.97  0.  0.
   499  4.98  0.  0.
   500  4.99  0.  0.
   501  5.00  0.  0.
   502  5.01  0.  0.
   503  5.02  0.  0.
   504  5.03  0.  0.
   505  5.04  0.  0.
   506  5.05  0.  0.
   507  5.06  0.  0.
   508  5.07  0.  0.
   509  5.08  0.  0.
   510  5.09  0.  0.
   511  5.10  0.  0.
   512  5.11  0.  0.
   513  5.12  0.  0.
   514  5.13  0.  0.
   515  5.14  0.  0.
   516  5.15  0.  0.
   517  5.16  0.  0.
   518  5.17  0.  0.
   519  5.18  0.  0.
   520  5.19  0.  0.
   521  5.20  0.  0.
   522  5.21  0.  0.
   523  5.22  0.  0.
   524  5.23  0.  0.
   525  5.24  0.  0.
   526  5.25  0.  0.
   527  5.26  0.  0.
   528  5.27  0.  0.
   529  5.28  0.  0.
   530  5.29  0.  0.
   531  5.30  0.  0.
   532  5.31  0.  0.
   533  5.32  0.  0.
   534  5.33  0.  0.
   535  5.34  0.  0.
   536  5.35  0.  0.
   537  5.36  0.  0.
   538  5.37  0.  0.
   539  5.38  0.  0.
   540  5.39  0.  0.
   541  5.40  0.  0.
   542  5.41  0.  0.
   543  5.42  0.  0.
   544  5.43  0.  0.
   545  5.44  0.  0.
   546  5.45  0.  0.
   547  5.46  0.  0.
   548  5.47  0.  0.
   549  5.48  0.  0.
   550  5.49  0.  0.
   551  5.50  0.  0.
   552  5.51  0.  0.
   553  5.52  0.  0.
   554  5.53  0.  0.
   555  5.54  0.  0.
   556  5.55  0.  0.
   557  5.56  0.  0.
   558  5.57  0.  0.
   559  5.58  0.  0.
   560  5.59  0.  0.
   561  5.60  0.  0.
   562  5.61  0.  0.
   563  5.62  0.  0.
   564  5.63  0.  0.
   565  5.64  0.  0.
   566  5.65  0.  0.
   567  5.66  0.  0.
   568  5.67  0.  0.
   569  5.68  0.  0.
   570  5.69  0.  0.
   571  5.70  0.  0.
   572  5.71  0.  0.
   573  5.72  0.  0.
   574  5.73  0.  0.
   575  5.74  0.  0.
   576  5.75  0.  0.
   577  5.76  0.  0.
   578  5.77  0.  0.
   579  5.78  0.  0.
   580  5.79  0.  0.
   581  5.80  0.  0.
   582  5.81  0.  0.
   583  5.82  0.  0.
   584  5.83  0.  0.
   585  5.84  0.  0.
   586  5.85  0.  0.
   587  5.86  0.  0.
   588  5.87  0.  0.
   589  5.88  0.  0.
   590  5.89  0.  0.
   591  5.90  0.  0.
   592  5.91  0.  0.
   593  5.92  0.  0.
   594  5.93  0.  0.
   595  5.94  0.  0.
   596  5.95  0.  0.
   597  5.96  0.  0.
   598  5.97  0.  0.
   599  5.98  0.  0.
   600  5.99  0.  0.
   1                        -3.1209018904908E+00 -8.3546672394717E-01
     1  0.0000000000000E+00  2.4160316677846E-08 -2.0964047432043E-08
     2  1.0000000000000E-02  1.8679004380291E-03  3.9635692949358E-04
     3  2.0000000000000E-02  7.4523217211091E-03  1.5892838309336E-03
     4  3.0000000000000E-02  1.6695936585952E-02  3.5900020996877E-03
     5  4.0000000000000E-02  2.9504893643260E-02  6.4160714097276E-03
     6  5.0000000000000E-02  4.5751305037530E-02  1.0089723697766E-02
     7  6.0000000000000E-02  6.5276623866933E-02  1.4635625116733E-02
     8  7.0000000000000E-02  8.7895809575768E-02  2.0078156769916E-02
     9  8.0000000000000E-02  1.1340215537174E-01  2.6438326001160E-02
    10  9.0000000000000E-02  1.4157263107152E-01  3.3730437440148E-02
    11  1.0000000000000E-01  1.7217357823428E-01  4.1958666299715E-02
    12  1.1000000000000E-01  2.0496658247968E-01  5.1113685139413E-02
    13  1.2000000000000E-01  2.3971434087183E-01  6.1169499103610E-02
    14  1.3000000000000E-01  2.7618634040939E-01  7.2080643328977E-02
    15  1.4000000000000E-01  3.1416416709120E-01  8.3779889741616E-02
    16  1.5000000000000E-01  3.5344627368041E-01  9.6176598934985E-02
    17  1.6000000000000E-01  3.9385204797955E-01  1.0915583648531E-01
    18  1.7000000000000E-01  4.3522504183613E-01  1.2257835231310E-01
    19  1.8000000000000E-01  4.7743524377074E-01  1.3628149706478E-01
    20  1.9000000000000E-01  5.2038030448940E-01  1.5008112161323E-01
    21  2.0000000000000E-01  5.6398565394005E-01  1.6377447540949E-01
    22  2.1000000000000E-01  6.0820348023673E-01  1.7714408739700E-01
    23  2.2000000000000E-01  6.5301057388058E-01  1.8996258042087E-01
    24  2.3000000000000E-01  6.9840507437584E-01  2.0199833746844E-01
    25  2.4000000000000E-01  7.4440218967331E-01  2.1302190661388E-01
    26  2.5000000000000E-01  7.9102899096728E-01  2.2281300215390E-01
    27  2.6000000000000E-01  8.3831841534378E-01  2.3116793301577E-01
    28  2.7000000000000E-01  8.8630263578661E-01  2.3790726694000E-01
    29  2.8000000000000E-01  9.3500598132063E-01  2.4288352094220E-01
    30  2.9000000000000E-01  9.8443760891961E-01  2.4598865579612E-01
    31  3.0000000000000E-01  1.0345841426459E+00  2.4716114527253E-01
    32  3.1000000000000E-01  1.0854025038597E+00  2.4639238999841E-01
    33  3.2000000000000E-01  1.1368131589051E+00  2.4373225129089E-01
    34  3.3000000000000E-01  1.1886940072722E+00  2.3929349222698E-01
    35  3.4000000000000E-01  1.2408751238028E+00  2.3325493142324E-01
    36  3.5000000000000E-01  1.2931345531909E+00  2.2586313923244E-01
    37  3.6000000000000E-01  1.3451953340807E+00  2.1743253587016E-01
    38  3.7000000000000E-01  1.3967239039250E+00  2.0834378574953E-01
    39  3.8000000000000E-01  1.4473300049812E+00  1.9904042127477E-01
    40  3.9000000000000E-01  1.4965681770864E+00  1.9002367163651E-01
    41  4.0000000000000E-01  1.5439408849642E+00  1.8184551676893E-01
    42  4.1000000000000E-01  1.5889032876677E+00  1.7510003249110E-01
    43  4.2000000000000E-01  1.6308696163113E+00  1.7041313881952E-01
    44  4.3000000000000E-01  1.6692210845216E+00  1.6843090833285E-01
    45  4.4000000000000E-01  1.7033152150523E+00  1.6980663411880E-01
    46  4.5000000000000E-01  1.7324964268287E+00  1.7518689608570E-01
    47  4.6000000000000E-01  1.7561076902945E+00  1.8519689918810E-01
    48  4.7000000000000E-01  1.7735030263036E+00  2.0042538639081E-01
    49  4.8000000000000E-01  1.7840605957982E+00  2.2140945208732E-01
    50  4.9000000000000E-01  1.7871961049329E+00  2.4861959744278E-01
    51  5.0000000000000E-01  1.7823762337893E+00  2.8244537715658E-01
    52  5.1000000000000E-01  1.7691317869061E+00  3.2318198702015E-01
    53  5.2000000000000E-01  1.7470702608890E+00  3.7101813316038E-01
    54  5.3000000000000E-01  1.7158875285627E+00  4.2602550698936E-01
    55  5.4000000000000E-01  1.6753783505204E+00  4.8815016481366E-01
    56  5.5000000000000E-01  1.6254454433627E+00  5.5720607818718E-01
    57  5.6000000000000E-01  1.5661068590872E+00  6.3287108101180E-01
    58  5.7000000000000E-01  1.4975014615005E+00  7.1468539288975E-01
    59  5.8000000000000E-01  1.4198923225366E+00  8.0205284626388E-01
    60  5.9000000000000E-01  1.3336679031872E+00  8.9424488856392E-01
    61  6.0000000000000E-01  1.2393409294726E+00  9.9040737114807E-01
    62  6.1000000000000E-01  1.1375449224701E+00  1.0895700756333E+00
    63  6.2000000000000E-01  1.0290283917909E+00  1.1906588666569E+00
    64  6.3000000000000E-01  9.1464675286514E-01  1.2925102996564E+00
    65  6.4000000000000E-01  7.9535207880093E-01  1.3938884543453E+00
    66  6.5000000000000E-01  6.7218084620898E-01  1.4935037106136E+00
    67  6.6000000000000E-01  5.4623988009129E-01  1.5900331349437E+00
    68  6.7000000000000E-01  4.1869074456019E-01  1.6821421033521E+00
    69  6.8000000000000E-01  2.9073286277503E-01  1.7685067524441E+00
    70  6.9000000000000E-01  1.6358568013935E-01  1.8478368243629E+00
    71  7.0000000000000E-01  3.8470208723485E-02  1.9188984549667E+00
    72  7.1000000000000E-01 -8.3409692565666E-02  1.9805364480314E+00
    73  7.2000000000000E-01 -2.0088593880107E-01  2.0316955819658E+00
    74  7.3000000000000E-01 -3.1284437691668E-01  2.0714405095195E+00
    75  7.4000000000000E-01 -4.1824212424604E-01  2.0989738350950E+00
    76  7.5000000000000E-01 -5.1612374688576E-01  2.1136519881435E+00
    77  7.6000000000000E-01 -6.0563596038308E-01  2.1149985540727E+00
    78  7.7000000000000E-01 -6.8604056584758E-01  2.1027147752745E+00
    79  7.8000000000000E-01 -7.5672537179553E-01  2.0766869932001E+00
    80  7.9000000000000E-01 -8.1721289502434E-01  2.0369908666321E+00
    81  8.0000000000000E-01 -8.6716668162459E-01  1.9838922700081E+00
    82  8.1000000000000E-01 -9.0639514076259E-01  1.9178448472442E+00
    83  8.2000000000000E-01 -9.3485283866460E-01  1.8394842723856E+00
    84  8.3000000000000E-01 -9.5263928624408E-01  1.7496194665954E+00
    85  8.4000000000000E-01 -9.5999635816974E-01  1.6492251913798E+00
    86  8.5000000000000E-01 -9.5730435331543E-01  1.5394347866999E+00
    87  8.6000000000000E-01 -9.4507362114365E-01  1.4215208499576E+00
    88  8.7000000000000E-01 -9.2393321355474E-01  1.2968709762959E+00
    89  8.8000000000000E-01 -8.9461739269345E-01  1.1669615534969E+00
    90  8.9000000000000E-01 -8.5795037148772E-01  1.0333303496501E+00
    91  9.0000000000000E-01 -8.1482967379612E-01  8.9754852896945E-01
    92  9.1000000000000E-01 -7.6620850852895E-01  7.6119267046779E-01
    93  9.2000000000000E-01 -7.1307755489558E-01  6.2581732268666E-01
    94  9.3000000000000E-01 -6.5644655303940E-01  4.9292859377620E-01
    95  9.4000000000000E-01 -5.9732608548689E-01  3.6395924406992E-01
    96  9.5000000000000E-01 -5.3670991976534E-01  2.4024571367969E-01
    97  9.6000000000000E-01 -4.7555826059747E-01  1.2300747654945E-01
    98  9.7000000000000E-01 -4.1478223230444E-01  1.3329066466325E-02
    99  9.8000000000000E-01 -3.5522987777998E-01 -8.7854933599326E-02
   100  9.9000000000000E-01 -2.9767392137807E-01 -1.7977170588817E-01
   101  1.0000000000000E+00 -2.4280149882966E-01 -2.6181864842744E-01
   102  1.0100000000000E+00 -1.9120601014767E-01 -3.3356836150156E-01
   103  1.0200000000000E+00 -1.4338120104789E-01 -3.9477014124338E-01
   104  1.0300000000000E+00 -9.9717527124100E-02 -4.4534802218884E-01
   105  1.0400000000000E+00 -6.0500802723197E-02 -4.8539548225446E-01
   106  1.0500000000000E+00 -2.5913085830379E-02 -5.1516699064570E-01
   107  1.0600000000000E+00  3.9642993561717E-03 -5.3506664469279E-01
   108  1.0700000000000E+00  2.9145745935702E-02 -5.4563419897996E-01
   109  1.0800000000000E+00  4.9734540034287E-02 -5.4752884303336E-01
   110  1.0900000000000E+00  6.5914451223092E-02 -5.4151112639945E-01
   111  1.1000000000000E+00  7.7939991416617E-02 -5.2842346538956E-01
   112  1.1100000000000E+00  8.6125619932507E-02 -5.0916968916370E-01
   113  1.1200000000000E+00  9.0834190104802E-02 -4.8469409780814E-01
   114  1.1300000000000E+00  9.2464942416464E-02 -4.5596050738204E-01
   115  1.1400000000000E+00  9.1441351491680E-02 -4.2393174923949E-01
   116  1.1500000000000E+00  8.8199129344974E-02 -3.8955007290241E-01
   117  1.1600000000000E+00  8.3174674346598E-02 -3.5371887201910E-01
   118  1.1700000000000E+00  7.6794236535148E-02 -3.1728611589453E-01
   119  1.1800000000000E+00  6.9464043610518E-02 -2.8102982096962E-01
   120  1.1900000000000E+00  6.1561601081558E-02 -2.4564584344240E-01
   121  1.2000000000000E+00  5.3428343629638E-02 -2.1173821319989E-01
   122  1.2100000000000E+00  4.5363774840881E-02 -1.7981216428753E-01
   123  1.2200000000000E+00  3.7621189971994E-02 -1.5026994955223E-01
   124  1.2300000000000E+00  3.0405031754587E-02 -1.2340945688222E-01
   125  1.2400000000000E+00  2.3869884813706E-02 -9.9425576233925E-02
   126  1.2500000000000E+00  1.8121069586610E-02 -7.8414198317843E-02
   127  1.2600000000000E+00  1.3216754804824E-02 -6.0378663339880E-02
   128  1.2700000000000E+00  9.1714675804480E-03 -4.5238418760513E-02
   129  1.2800000000000E+00  5.9608445644192E-03 -3.2839593208629E-02
   130  1.2900000000000E+00  3.5274369843891E-03 -2.2967150013536E-02
   131  1.3000000000000E+00  1.7873554927852E-03 -1.5358245795869E-02
   132  1.3100000000000E+00  6.3752985794248E-04 -9.7164092505590E-03
   133  1.3200000000000E+00 -3.6688197060030E-05 -5.7260727620571E-03
   134  1.3300000000000E+00 -3.5306761775170E-04 -3.0683522801383E-03
   135  1.3400000000000E+00 -4.2302019427868E-04 -1.4375684534244E-03
   136  1.3500000000000E+00 -3.4976811338519E-04 -5.4585496337293E-04
   137  1.3600000000000E+00 -2.2048880881436E-04 -1.3860599985136E-04
   138  1.3700000000000E+00 -9.9864595712061E-05 -5.8255968174274E-06
   139  1.3800000000000E+00 -2.4879261903166E-05  8.7167731228597E-06
   140  1.3900000000000E+00 -9.4104486930486E-07  8.5883502579619E-07