:RELAXSTEP: 17
:R:
 6.561614384947450  6.206562782367791  6.376105407570137
 8.426119765865989  7.633134371404885  7.924530999444420
 5.372508007291361  4.214632182732432  7.954770642629335
 4.568660577383707  7.943390853187669  5.438813377234717
 7.871086264511487  5.002282810307217  4.205783573121396
:ISFD: 0
:ISRESET: 0
:STEP: 6
:DX:
-0.058845326321193
 0.072463677201077
 0.062886749384175
-0.006786477342338
-0.022474072241679
 0.012916912340373
 0.020227627365281
 0.006331992631932
-0.009244795761805
 0.020738801032108
-0.026916448262741
-0.017392439291119
 0.024665375266142
-0.029405149328590
-0.049166426671624
 0.021205279071196
-0.023295488117753
-0.024150467609672
 0.002675230057402
 0.004623255579096
 0.003009899508775
-0.003193901141028
-0.001541634490654
 0.003498505396770
-0.009319302374598
 0.009499590444678
-0.001015516817005
-0.011367305612973
 0.010714276584633
 0.018657579521131
 0.002998507777731
-0.000534596645405
-0.006244497581806
 0.000339814882439
-0.003181562729329
 0.008348781938886
 0.003922587431757
 0.000784024755469
 0.000541822774952
-0.002655856046373
 0.000703938787465
-0.007429427763326
-0.004605054045554
 0.002228195831799
 0.004783320631294
 0.001492345114697
 0.012825492590141
-0.013787939331945
-0.001158740951071
-0.023402626784452
 0.046199053898146
 0.026453650645942
 0.007210350205606
-0.000439374943900
-0.009826029701303
-0.001422423632008
-0.043920753631796
-0.016961225108267
 0.004789207620710
 0.011949014009496
-0.002916366361547
 0.023075708124455
 0.003932975334401
-0.011675967713701
-0.038893764306686
 0.049573204325436
 0.037139903091562
 0.011295942140342
-0.000596634251530
-0.011537841084706
 0.000289176460970
-0.056570688758791
-0.011009727931610
 0.004232937580917
 0.003661143350485
-0.028282291646411
 0.011275046906722
-0.013427433576704
-0.003905127303890
-0.016659648851378
 0.025309508369594
 0.018668115337677
 0.000975348927923
 0.006743161184790
 0.006491809133634
-0.004475102412794
-0.017926727729305
 0.007027494478988
 0.008884355429527
-0.000698508248375
 0.000000000000000
 0.000000000000000
 0.000000000000000
 0.000000000000000
 0.000000000000000
 0.000000000000000
 0.000000000000000
 0.000000000000000
 0.000000000000000
 0.000000000000000
 0.000000000000000
 0.000000000000000
 0.000000000000000
 0.000000000000000
 0.000000000000000
 0.000000000000000
 0.000000000000000
 0.000000000000000
 0.000000000000000
 0.000000000000000
 0.000000000000000
 0.000000000000000
 0.000000000000000
 0.000000000000000
 0.000000000000000
 0.000000000000000
 0.000000000000000
 0.000000000000000
 0.000000000000000
 0.000000000000000
 0.000000000000000
 0.000000000000000
 0.000000000000000
 0.000000000000000
 0.000000000000000
 0.000000000000000
 0.000000000000000
 0.000000000000000
 0.000000000000000
 0.000000000000000
 0.000000000000000
 0.000000000000000
 0.000000000000000
 0.000000000000000
 0.000000000000000
 0.000000000000000
 0.000000000000000
 0.000000000000000
 0.000000000000000
 0.000000000000000
 0.000000000000000
 0.000000000000000
 0.000000000000000
 0.000000000000000
 0.000000000000000
 0.000000000000000
 0.000000000000000
 0.000000000000000
 0.000000000000000
 0.000000000000000
 0.000000000000000
 0.000000000000000
 0.000000000000000
 0.000000000000000
 0.000000000000000
 0.000000000000000
 0.000000000000000
 0.000000000000000
 0.000000000000000
 0.000000000000000
 0.000000000000000
 0.000000000000000
 0.000000000000000
 0.000000000000000
 0.000000000000000
 0.000000000000000
 0.000000000000000
 0.000000000000000
 0.000000000000000
 0.000000000000000
 0.000000000000000
 0.000000000000000
 0.000000000000000
 0.000000000000000
 0.000000000000000
 0.000000000000000
 0.000000000000000
 0.000000000000000
 0.000000000000000
 0.000000000000000
 0.000000000000000
 0.000000000000000
 0.000000000000000
 0.000000000000000
 0.000000000000000
 0.000000000000000
 0.000000000000000
 0.000000000000000
 0.000000000000000
 0.000000000000000
 0.000000000000000
 0.000000000000000
 0.000000000000000
 0.000000000000000
 0.000000000000000
 0.000000000000000
 0.000000000000000
 0.000000000000000
 0.000000000000000
 0.000000000000000
 0.000000000000000
 0.000000000000000
 0.000000000000000
 0.000000000000000
 0.000000000000000
 0.000000000000000
 0.000000000000000
 0.000000000000000
 0.000000000000000
 0.000000000000000
 0.000000000000000
 0.000000000000000
 0.000000000000000
 0.000000000000000
 0.000000000000000
 0.000000000000000
 0.000000000000000
 0.000000000000000
 0.000000000000000
 0.000000000000000
 0.000000000000000
 0.000000000000000
 0.000000000000000
 0.000000000000000
 0.000000000000000
 0.000000000000000
 0.000000000000000
 0.000000000000000
 0.000000000000000
 0.000000000000000
 0.000000000000000
 0.000000000000000
 0.000000000000000
 0.000000000000000
 0.000000000000000
 0.000000000000000
 0.000000000000000
 0.000000000000000
 0.000000000000000
 0.000000000000000
 0.000000000000000
 0.000000000000000
 0.000000000000000
 0.000000000000000
 0.000000000000000
 0.000000000000000
 0.000000000000000
 0.000000000000000
 0.000000000000000
 0.000000000000000
 0.000000000000000
 0.000000000000000
 0.000000000000000
 0.000000000000000
 0.000000000000000
 0.000000000000000
 0.000000000000000
 0.000000000000000
 0.000000000000000
 0.000000000000000
 0.000000000000000
 0.000000000000000
 0.000000000000000
 0.000000000000000
 0.000000000000000
 0.000000000000000
 0.000000000000000
 0.000000000000000
 0.000000000000000
 0.000000000000000
 0.000000000000000
 0.000000000000000
 0.000000000000000
 0.000000000000000
 0.000000000000000
 0.000000000000000
 0.000000000000000
 0.000000000000000
 0.000000000000000
 0.000000000000000
 0.000000000000000
 0.000000000000000
 0.000000000000000
 0.000000000000000
 0.000000000000000
 0.000000000000000
 0.000000000000000
 0.000000000000000
 0.000000000000000
 0.000000000000000
 0.000000000000000
 0.000000000000000
 0.000000000000000
 0.000000000000000
 0.000000000000000
 0.000000000000000
 0.000000000000000
 0.000000000000000
 0.000000000000000
 0.000000000000000
:DG:
-0.024102850841564
 0.026233302850910
 0.027580153246773
-0.003060788190643
-0.004952300031393
-0.004088739660662
 0.003273647919774
 0.001687826255920
-0.003991107294503
 0.010753502814409
-0.010780239251797
 0.001788601004611
 0.013136488298024
-0.012188589823640
-0.021288907296219
 0.008637331577454
-0.009158829618562
-0.009104741066541
 0.001290739737185
 0.001761245960364
 0.001848604671963
-0.001061363229274
-0.000724443351034
 0.001521623072028
-0.004322833613747
 0.004139187934578
-0.001165822540479
-0.004543874471618
 0.003982839074654
 0.006900335863029
 0.001610483212786
-0.001404875967137
-0.002307859905884
 0.000354883175918
 0.000285404417735
 0.000748725156102
-0.000109516782852
-0.000240368253358
 0.000386106427607
-0.000722208105517
 0.000565430118596
-0.000422769336093
-0.001133641500334
 0.000794409684163
 0.001595797658269
 0.002352193780844
-0.001805731687854
-0.004671428436888
 0.001113195755971
 0.000213676234270
 0.003087077181736
 0.000506320929963
-0.000181696201102
 0.000438649988219
-0.001316115287108
 0.000537089331285
-0.001943207758932
-0.002655595179670
 0.001236662323402
 0.003088909025865
 0.000638366043499
 0.002077318138838
 0.003055385758336
-0.000970752267457
-0.002023629757985
 0.001238515860614
 0.001540406904568
 0.000960904134671
-0.000808987236829
-0.000746316230778
-0.000107896252977
-0.002623373144189
-0.000461704449832
-0.000906696262546
-0.000861541237932
-0.009515556987909
 0.003207196778733
-0.003919995590335
 0.002900455879690
 0.001128955837219
 0.003067091544709
 0.001037705316590
-0.000007869451986
 0.000627394550044
 0.004316338327059
-0.003606285001945
 0.001229153331784
 0.001261057464570
-0.000721998162022
-0.001003643836203
 0.000000000000000
 0.000000000000000
 0.000000000000000
 0.000000000000000
 0.000000000000000
 0.000000000000000
 0.000000000000000
 0.000000000000000
 0.000000000000000
 0.000000000000000
 0.000000000000000
 0.000000000000000
 0.000000000000000
 0.000000000000000
 0.000000000000000
 0.000000000000000
 0.000000000000000
 0.000000000000000
 0.000000000000000
 0.000000000000000
 0.000000000000000
 0.000000000000000
 0.000000000000000
 0.000000000000000
 0.000000000000000
 0.000000000000000
 0.000000000000000
 0.000000000000000
 0.000000000000000
 0.000000000000000
 0.000000000000000
 0.000000000000000
 0.000000000000000
 0.000000000000000
 0.000000000000000
 0.000000000000000
 0.000000000000000
 0.000000000000000
 0.000000000000000
 0.000000000000000
 0.000000000000000
 0.000000000000000
 0.000000000000000
 0.000000000000000
 0.000000000000000
 0.000000000000000
 0.000000000000000
 0.000000000000000
 0.000000000000000
 0.000000000000000
 0.000000000000000
 0.000000000000000
 0.000000000000000
 0.000000000000000
 0.000000000000000
 0.000000000000000
 0.000000000000000
 0.000000000000000
 0.000000000000000
 0.000000000000000
 0.000000000000000
 0.000000000000000
 0.000000000000000
 0.000000000000000
 0.000000000000000
 0.000000000000000
 0.000000000000000
 0.000000000000000
 0.000000000000000
 0.000000000000000
 0.000000000000000
 0.000000000000000
 0.000000000000000
 0.000000000000000
 0.000000000000000
 0.000000000000000
 0.000000000000000
 0.000000000000000
 0.000000000000000
 0.000000000000000
 0.000000000000000
 0.000000000000000
 0.000000000000000
 0.000000000000000
 0.000000000000000
 0.000000000000000
 0.000000000000000
 0.000000000000000
 0.000000000000000
 0.000000000000000
 0.000000000000000
 0.000000000000000
 0.000000000000000
 0.000000000000000
 0.000000000000000
 0.000000000000000
 0.000000000000000
 0.000000000000000
 0.000000000000000
 0.000000000000000
 0.000000000000000
 0.000000000000000
 0.000000000000000
 0.000000000000000
 0.000000000000000
 0.000000000000000
 0.000000000000000
 0.000000000000000
 0.000000000000000
 0.000000000000000
 0.000000000000000
 0.000000000000000
 0.000000000000000
 0.000000000000000
 0.000000000000000
 0.000000000000000
 0.000000000000000
 0.000000000000000
 0.000000000000000
 0.000000000000000
 0.000000000000000
 0.000000000000000
 0.000000000000000
 0.000000000000000
 0.000000000000000
 0.000000000000000
 0.000000000000000
 0.000000000000000
 0.000000000000000
 0.000000000000000
 0.000000000000000
 0.000000000000000
 0.000000000000000
 0.000000000000000
 0.000000000000000
 0.000000000000000
 0.000000000000000
 0.000000000000000
 0.000000000000000
 0.000000000000000
 0.000000000000000
 0.000000000000000
 0.000000000000000
 0.000000000000000
 0.000000000000000
 0.000000000000000
 0.000000000000000
 0.000000000000000
 0.000000000000000
 0.000000000000000
 0.000000000000000
 0.000000000000000
 0.000000000000000
 0.000000000000000
 0.000000000000000
 0.000000000000000
 0.000000000000000
 0.000000000000000
 0.000000000000000
 0.000000000000000
 0.000000000000000
 0.000000000000000
 0.000000000000000
 0.000000000000000
 0.000000000000000
 0.000000000000000
 0.000000000000000
 0.000000000000000
 0.000000000000000
 0.000000000000000
 0.000000000000000
 0.000000000000000
 0.000000000000000
 0.000000000000000
 0.000000000000000
 0.000000000000000
 0.000000000000000
 0.000000000000000
 0.000000000000000
 0.000000000000000
 0.000000000000000
 0.000000000000000
 0.000000000000000
 0.000000000000000
 0.000000000000000
 0.000000000000000
 0.000000000000000
 0.000000000000000
 0.000000000000000
 0.000000000000000
 0.000000000000000
 0.000000000000000
 0.000000000000000
 0.000000000000000
 0.000000000000000
 0.000000000000000
 0.000000000000000
 0.000000000000000
 0.000000000000000
 0.000000000000000
 0.000000000000000
 0.000000000000000
 0.000000000000000
 0.000000000000000
 0.000000000000000
 0.000000000000000
 0.000000000000000
 0.000000000000000
 0.000000000000000
 0.000000000000000
:IYS:
134.084522744577953
1055.688797490616025
22159.676372458998230
2642.911537561436035
2308.652188687599391
2201.291919445812709
 0.000000000000000
 0.000000000000000
 0.000000000000000
 0.000000000000000
 0.000000000000000
 0.000000000000000
 0.000000000000000
 0.000000000000000
 0.000000000000000
 0.000000000000000
 0.000000000000000
 0.000000000000000
 0.000000000000000
 0.000000000000000
:FOLD:
 0.005972427956321
-0.001406477748075
 0.004765587476759
-0.003289325465159
-0.001915872259529
-0.002738716471688
-0.000234697799535
 0.000055962857033
-0.000437162035411
-0.002884709617988
 0.002662528552368
-0.001120921436106
 0.000436304926360
 0.000603858598202
-0.000468787533554
:RDISP:
 0.014823520884533
-0.003358567881582
 0.012186484734056
-0.003919081540436
 0.001019145037310
-0.010623718534474
-0.004748328312704
 0.000246701024412
-0.002735427906241
-0.005350692380329
 0.004406238165682
 0.002764414903178
-0.000805418651062
-0.002313516345821
-0.001591753196517
