Ge    ONCVPSP-3.3.1  r_core=   2.66770   2.57393   2.66770
     32.0000     14.0000      190715    zatom,zion,pspd
     8      11   2     4   600     0    pspcod,pspxc,lmax,lloc,mmax,r2well
  5.99000000  0.00000000  0.00000000    rchrg fchrg qchrg
     2     2     2     0     0    nproj
     1     1           extension_switch
   0                         8.5029845977026E+00  7.3995309190817E-01
     1  0.0000000000000E+00 -3.5779157414595E-12  7.2147843255266E-12
     2  1.0000000000000E-02  4.9840043236173E-02 -3.1645141222318E-02
     3  2.0000000000000E-02  9.9612118934968E-02 -6.3200185072375E-02
     4  3.0000000000000E-02  1.4924839397917E-01 -9.4575263502358E-02
     5  4.0000000000000E-02  1.9868130376298E-01 -1.2568096648560E-01
     6  5.0000000000000E-02  2.4784368562637E-01 -1.5642856945959E-01
     7  6.0000000000000E-02  2.9666891130629E-01 -1.8673025889295E-01
     8  7.0000000000000E-02  3.4509101808126E-01 -2.1649935535950E-01
     9  8.0000000000000E-02  3.9304483828940E-01 -2.4565053350966E-01
    10  9.0000000000000E-02  4.4046612690434E-01 -2.7410003833833E-01
    11  1.0000000000000E-01  4.8729168685887E-01 -3.0176589715929E-01
    12  1.1000000000000E-01  5.3345949181240E-01 -3.2856812670826E-01
    13  1.2000000000000E-01  5.7890880606496E-01 -3.5442893481094E-01
    14  1.3000000000000E-01  6.2358030132880E-01 -3.7927291606812E-01
    15  1.4000000000000E-01  6.6741617007671E-01 -4.0302724102689E-01
    16  1.5000000000000E-01  7.1036023519590E-01 -4.2562183832616E-01
    17  1.6000000000000E-01  7.5235805568620E-01 -4.4698956932468E-01
    18  1.7000000000000E-01  7.9335702815221E-01 -4.6706639474136E-01
    19  1.8000000000000E-01  8.3330648385045E-01 -4.8579153286112E-01
    20  1.9000000000000E-01  8.7215778106476E-01 -5.0310760888326E-01
    21  2.0000000000000E-01  9.0986439259591E-01 -5.1896079501542E-01
    22  2.1000000000000E-01  9.4638198816466E-01 -5.3330094094237E-01
    23  2.2000000000000E-01  9.8166851154148E-01 -5.4608169432711E-01
    24  2.3000000000000E-01  1.0156842522303E+00 -5.5726061102990E-01
    25  2.4000000000000E-01  1.0483919115487E+00 -5.6679925476122E-01
    26  2.5000000000000E-01  1.0797566629621E+00 -5.7466328591425E-01
    27  2.6000000000000E-01  1.1097462065451E+00 -5.8082253935433E-01
    28  2.7000000000000E-01  1.1383308174585E+00 -5.8525109097424E-01
    29  2.8000000000000E-01  1.1654833883488E+00 -5.8792731285664E-01
    30  2.9000000000000E-01  1.1911794655899E+00 -5.8883391691781E-01
    31  3.0000000000000E-01  1.2153972793070E+00 -5.8795798693973E-01
    32  3.1000000000000E-01  1.2381177671371E+00 -5.8529099893130E-01
    33  3.2000000000000E-01  1.2593245916986E+00 -5.8082882979264E-01
    34  3.3000000000000E-01  1.2790041517583E+00 -5.7457175429024E-01
    35  3.4000000000000E-01  1.2971455871028E+00 -5.6652443038404E-01
    36  3.5000000000000E-01  1.3137407771356E+00 -5.5669587298118E-01
    37  3.6000000000000E-01  1.3287843332412E+00 -5.4509941622396E-01
    38  3.7000000000000E-01  1.3422735849703E+00 -5.3175266445252E-01
    39  3.8000000000000E-01  1.3542085601208E+00 -5.1667743201501E-01
    40  3.9000000000000E-01  1.3645919588010E+00 -4.9989967212981E-01
    41  4.0000000000000E-01  1.3734291215821E+00 -4.8144939503541E-01
    42  4.1000000000000E-01  1.3807279918576E+00 -4.6136057569416E-01
    43  4.2000000000000E-01  1.3864990725467E+00 -4.3967105134533E-01
    44  4.3000000000000E-01  1.3907553772907E+00 -4.1642240923187E-01
    45  4.4000000000000E-01  1.3935123763069E+00 -3.9165986485278E-01
    46  4.5000000000000E-01  1.3947879370773E+00 -3.6543213111943E-01
    47  4.6000000000000E-01  1.3946022600645E+00 -3.3779127881976E-01
    48  4.7000000000000E-01  1.3929778096564E+00 -3.0879258881814E-01
    49  4.8000000000000E-01  1.3899392405569E+00 -2.7849439644177E-01
    50  4.9000000000000E-01  1.3855133198491E+00 -2.4695792852552E-01
    51  5.0000000000000E-01  1.3797288449669E+00 -2.1424713360735E-01
    52  5.1000000000000E-01  1.3726165578240E+00 -1.8042850578476E-01
    53  5.2000000000000E-01  1.3642090553559E+00 -1.4557090275931E-01
    54  5.3000000000000E-01  1.3545406967382E+00 -1.0974535861190E-01
    55  5.4000000000000E-01  1.3436475075548E+00 -7.3024891864435E-02
    56  5.5000000000000E-01  1.3315670811940E+00 -3.5484309395775E-02
    57  5.6000000000000E-01  1.3183384777560E+00  2.7999932104784E-03
    58  5.7000000000000E-01  1.3040021207623E+00  4.1750234300367E-02
    59  5.8000000000000E-01  1.2885996919589E+00  8.1287451173912E-02
    60  5.9000000000000E-01  1.2721740245110E+00  1.2133170690242E-01
    61  6.0000000000000E-01  1.2547689948868E+00  1.6180229833936E-01
    62  6.1000000000000E-01  1.2364294137306E+00  2.0261796472422E-01
    63  6.2000000000000E-01  1.2172009160256E+00  2.4369709628007E-01
    64  6.3000000000000E-01  1.1971298508456E+00  2.8495794220827E-01
    65  6.4000000000000E-01  1.1762631709951E+00  3.2631881748853E-01
    66  6.5000000000000E-01  1.1546483228328E+00  3.6769830789902E-01
    67  6.6000000000000E-01  1.1323331365715E+00  4.0901547267979E-01
    68  6.7000000000000E-01  1.1093657173434E+00  4.5019004427265E-01
    69  6.8000000000000E-01  1.0857943373154E+00  4.9114262458268E-01
    70  6.9000000000000E-01  1.0616673291303E+00  5.3179487722022E-01
    71  7.0000000000000E-01  1.0370329809478E+00  5.7206971519728E-01
    72  7.1000000000000E-01  1.0119394333476E+00  6.1189148356922E-01
    73  7.2000000000000E-01  9.8643457835149E-01  6.5118613653123E-01
    74  7.3000000000000E-01  9.6056596081061E-01  6.8988140849850E-01
    75  7.4000000000000E-01  9.3438068239576E-01  7.2790697872102E-01
    76  7.5000000000000E-01  9.0792530841748E-01  7.6519462900587E-01
    77  7.6000000000000E-01  8.8124577769217E-01  8.0167839414452E-01
    78  7.7000000000000E-01  8.5438731565844E-01  8.3729470466732E-01
    79  7.8000000000000E-01  8.2739435093646E-01  8.7198252157381E-01
    80  7.9000000000000E-01  8.0031043550978E-01  9.0568346271478E-01
    81  8.0000000000000E-01  7.7317816869650E-01  9.3834192053003E-01
    82  8.1000000000000E-01  7.4603912506274E-01  9.6990517087506E-01
    83  8.2000000000000E-01  7.1893378641778E-01  1.0003234726994E+00
    84  8.3000000000000E-01  6.9190147801565E-01  1.0295501583700E+00
    85  8.4000000000000E-01  6.6498030907382E-01  1.0575417144631E+00
    86  8.5000000000000E-01  6.3820711770437E-01  1.0842578528817E+00
    87  8.6000000000000E-01  6.1161742033868E-01  1.1096615721826E+00
    88  8.7000000000000E-01  5.8524536571086E-01  1.1337192090357E+00
    89  8.8000000000000E-01  5.5912369345085E-01  1.1564004797631E+00
    90  8.9000000000000E-01  5.3328369732208E-01  1.1776785119419E+00
    91  9.0000000000000E-01  5.0775519312411E-01  1.1975298660859E+00
    92  9.1000000000000E-01  4.8256649126516E-01  1.2159345474501E+00
    93  9.2000000000000E-01  4.5774437399482E-01  1.2328760080371E+00
    94  9.3000000000000E-01  4.3331407727216E-01  1.2483411389119E+00
    95  9.4000000000000E-01  4.0929927723025E-01  1.2623202529632E+00
    96  9.5000000000000E-01  3.8572208118369E-01  1.2748070582796E+00
    97  9.6000000000000E-01  3.6260302311181E-01  1.2857986223354E+00
    98  9.7000000000000E-01  3.3996106353695E-01  1.2952953272108E+00
    99  9.8000000000000E-01  3.1781359370383E-01  1.3033008160978E+00
   100  9.9000000000000E-01  2.9617644395350E-01  1.3098219313674E+00
   101  1.0000000000000E+00  2.7506389617344E-01  1.3148686445010E+00
   102  1.0100000000000E+00  2.5448870019354E-01  1.3184539782103E+00
   103  1.0200000000000E+00  2.3446209398710E-01  1.3205939210921E+00
   104  1.0300000000000E+00  2.1499382752508E-01  1.3213073351879E+00
   105  1.0400000000000E+00  1.9609219012287E-01  1.3206158568344E+00
   106  1.0500000000000E+00  1.7776404110938E-01  1.3185437912102E+00
   107  1.0600000000000E+00  1.6001484363996E-01  1.3151180010020E+00
   108  1.0700000000000E+00  1.4284870146772E-01  1.3103677896241E+00
   109  1.0800000000000E+00  1.2626839848038E-01  1.3043247794426E+00
   110  1.0900000000000E+00  1.1027544080420E-01  1.2970227854657E+00
   111  1.1000000000000E+00  9.4870101271199E-02  1.2884976849679E+00
   112  1.1100000000000E+00  8.0051466041790E-02  1.2787872835298E+00
   113  1.1200000000000E+00  6.5817483171256E-02  1.2679311779754E+00
   114  1.1300000000000E+00  5.2165012905698E-02  1.2559706166974E+00
   115  1.1400000000000E+00  3.9089879491376E-02  1.2429483578618E+00
   116  1.1500000000000E+00  2.6586924280477E-02  1.2289085259826E+00
   117  1.1600000000000E+00  1.4650059915852E-02  1.2138964673596E+00
   118  1.1700000000000E+00  3.2723253780003E-03  1.1979586048671E+00
   119  1.1800000000000E+00 -7.5540583208142E-03  1.1811422925769E+00
   120  1.1900000000000E+00 -1.7837632008068E-02  1.1634956706931E+00
   121  1.2000000000000E+00 -2.7587641998778E-02  1.1450675212699E+00
   122  1.2100000000000E+00 -3.6813983725315E-02  1.1259071251718E+00
   123  1.2200000000000E+00 -4.5527145549831E-02  1.1060641207221E+00
   124  1.2300000000000E+00 -5.3738152957897E-02  1.0855883644828E+00
   125  1.2400000000000E+00 -6.1458513322289E-02  1.0645297945826E+00
   126  1.2500000000000E+00 -6.8700161419716E-02  1.0429382969987E+00
   127  1.2600000000000E+00 -7.5475405879403E-02  1.0208635751871E+00
   128  1.2700000000000E+00 -8.1796876731574E-02  9.9835502343083E-01
   129  1.2800000000000E+00 -8.7677474213547E-02  9.7546160425242E-01
   130  1.2900000000000E+00 -9.3130318988656E-02  9.5223173023074E-01
   131  1.3000000000000E+00 -9.8168703919400E-02  9.2871315053049E-01
   132  1.3100000000000E+00 -1.0280604752238E-01  9.0495284242102E-01
   133  1.3200000000000E+00 -1.0705584923435E-01  8.8099690806545E-01
   134  1.3300000000000E+00 -1.1093164659776E-01  8.5689047681269E-01
   135  1.3400000000000E+00 -1.1444697446032E-01  8.3267761319408E-01
   136  1.3500000000000E+00 -1.1761532629211E-01  8.0840123084611E-01
   137  1.3600000000000E+00 -1.2045011768578E-01  7.8410301249499E-01
   138  1.3700000000000E+00 -1.2296465210958E-01  7.5982333614765E-01
   139  1.3800000000000E+00 -1.2517208897843E-01  7.3560120762411E-01
   140  1.3900000000000E+00 -1.2708541406982E-01  7.1147419947811E-01
   141  1.4000000000000E+00 -1.2871741233274E-01  6.8747839640219E-01
   142  1.4100000000000E+00 -1.3008064310447E-01  6.6364834713685E-01
   143  1.4200000000000E+00 -1.3118741773581E-01  6.4001702287138E-01
   144  1.4300000000000E+00 -1.3204977964530E-01  6.1661578216919E-01
   145  1.4400000000000E+00 -1.3267948676176E-01  5.9347434231048E-01
   146  1.4500000000000E+00 -1.3308799635484E-01  5.7062075703794E-01
   147  1.4600000000000E+00 -1.3328645220783E-01  5.4808140058614E-01
   148  1.4700000000000E+00 -1.3328567408425E-01  5.2588095786962E-01
   149  1.4800000000000E+00 -1.3309614945338E-01  5.0404242073577E-01
   150  1.4900000000000E+00 -1.3272802737975E-01  4.8258709004920E-01
   151  1.5000000000000E+00 -1.3219111454029E-01  4.6153458351125E-01
   152  1.5100000000000E+00 -1.3149487325426E-01  4.4090284893396E-01
   153  1.5200000000000E+00 -1.3064842146076E-01  4.2070818280512E-01
   154  1.5300000000000E+00 -1.2966053453508E-01  4.0096525387780E-01
   155  1.5400000000000E+00 -1.2853964884034E-01  3.8168713152965E-01
   156  1.5500000000000E+00 -1.2729386691448E-01  3.6288531864746E-01
   157  1.5600000000000E+00 -1.2593096415831E-01  3.4456978870643E-01
   158  1.5700000000000E+00 -1.2445839692829E-01  3.2674902681015E-01
   159  1.5800000000000E+00 -1.2288331188117E-01  3.0943007431276E-01
   160  1.5900000000000E+00 -1.2121255646865E-01  2.9261857677741E-01
   161  1.6000000000000E+00 -1.1945269042593E-01  2.7631883488135E-01
   162  1.6100000000000E+00 -1.1760999813813E-01  2.6053385798720E-01
   163  1.6200000000000E+00 -1.1569050173488E-01  2.4526542000398E-01
   164  1.6300000000000E+00 -1.1369997478436E-01  2.3051411722392E-01
   165  1.6400000000000E+00 -1.1164395644326E-01  2.1627942777246E-01
   166  1.6500000000000E+00 -1.0952776592825E-01  2.0255977233950E-01
   167  1.6600000000000E+00 -1.0735651717017E-01  1.8935257583905E-01
   168  1.6700000000000E+00 -1.0513513351718E-01  1.7665432966216E-01
   169  1.6800000000000E+00 -1.0286836235221E-01  1.6446065417866E-01
   170  1.6900000000000E+00 -1.0056078949625E-01  1.5276636116019E-01
   171  1.7000000000000E+00 -9.8216853268850E-02  1.4156551579134E-01
   172  1.7100000000000E+00 -9.5840858084190E-02  1.3085149795409E-01
   173  1.7200000000000E+00 -9.3436987464551E-02  1.2061706247287E-01
   174  1.7300000000000E+00 -9.1009316354728E-02  1.1085439801493E-01
   175  1.7400000000000E+00 -8.8561822637898E-02  1.0155518437172E-01
   176  1.7500000000000E+00 -8.6098397735086E-02  9.2710647812235E-02
   177  1.7600000000000E+00 -8.3622856219987E-02  8.4311614299331E-02
   178  1.7700000000000E+00 -8.1138944318863E-02  7.6348560232942E-02
   179  1.7800000000000E+00 -7.8650347274872E-02  6.8811660613034E-02
   180  1.7900000000000E+00 -7.6160695418850E-02  6.1690834224838E-02
   181  1.8000000000000E+00 -7.3673568993038E-02  5.4975785886347E-02
   182  1.8100000000000E+00 -7.1192501524011E-02  4.8656045257438E-02
   183  1.8200000000000E+00 -6.8720981877080E-02  4.2721002442368E-02
   184  1.8300000000000E+00 -6.6262454736767E-02  3.7159939765693E-02
   185  1.8400000000000E+00 -6.3820319711876E-02  3.1962060106124E-02
   186  1.8500000000000E+00 -6.1397928812705E-02  2.7116511167588E-02
   187  1.8600000000000E+00 -5.8998582490323E-02  2.2612406060357E-02
   188  1.8700000000000E+00 -5.6625524064317E-02  1.8438839741677E-02
   189  1.8800000000000E+00 -5.4281932655662E-02  1.4584901528917E-02
   190  1.8900000000000E+00 -5.1970914581687E-02  1.1039683528522E-02
   191  1.9000000000000E+00 -4.9695493214742E-02  7.7922849305856E-03
   192  1.9100000000000E+00 -4.7458597424290E-02  4.8318123922020E-03
   193  1.9200000000000E+00 -4.5263048467062E-02  2.1473761321297E-03
   194  1.9300000000000E+00 -4.3111545607163E-02 -2.7191764530158E-04
   195  1.9400000000000E+00 -4.1006650237483E-02 -2.4369786117318E-03
   196  1.9500000000000E+00 -3.8950768826519E-02 -4.3587477266129E-03
   197  1.9600000000000E+00 -3.6946134552546E-02 -6.0482166071330E-03
   198  1.9700000000000E+00 -3.4994787806287E-02 -7.5164504623648E-03
   199  1.9800000000000E+00 -3.3098555596063E-02 -8.7746145847212E-03
   200  1.9900000000000E+00 -3.1259028676212E-02 -9.8340078323410E-03
   201  2.0000000000000E+00 -2.9477545035714E-02 -1.0706078600593E-02
   202  2.0100000000000E+00 -2.7755149444051E-02 -1.1402509208126E-02
   203  2.0200000000000E+00 -2.6092603122214E-02 -1.1935160710601E-02
   204  2.0300000000000E+00 -2.4490342599601E-02 -1.2316159427925E-02
   205  2.0400000000000E+00 -2.2948421985420E-02 -1.2558032776767E-02
   206  2.0500000000000E+00 -2.1466451427107E-02 -1.2673861610066E-02
   207  2.0600000000000E+00 -2.0043759218150E-02 -1.2676791694187E-02
   208  2.0700000000000E+00 -1.8679450683720E-02 -1.2579832443312E-02
   209  2.0800000000000E+00 -1.7372491903368E-02 -1.2395620978575E-02
   210  2.0900000000000E+00 -1.6121829491210E-02 -1.2136081296834E-02
   211  2.1000000000000E+00 -1.4926490468702E-02 -1.1812143867545E-02
   212  2.1100000000000E+00 -1.3785511323512E-02 -1.1433955457512E-02
   213  2.1200000000000E+00 -1.2697900440649E-02 -1.1011004896923E-02
   214  2.1300000000000E+00 -1.1662672361510E-02 -1.0552031751031E-02
   215  2.1400000000000E+00 -1.0678840701051E-02 -1.0065059306168E-02
   216  2.1500000000000E+00 -9.7454086758705E-03 -9.5574356697350E-03
   217  2.1600000000000E+00 -8.8613708710491E-03 -9.0358431381715E-03
   218  2.1700000000000E+00 -8.0257088695425E-03 -8.5063264099324E-03
   219  2.1800000000000E+00 -7.2373882941440E-03 -7.9743179727193E-03
   220  2.1900000000000E+00 -6.4953559237189E-03 -7.4446643471988E-03
   221  2.2000000000000E+00 -5.7985369159206E-03 -6.9216530663882E-03
   222  2.2100000000000E+00 -5.1458323410923E-03 -6.4090400667660E-03
   223  2.2200000000000E+00 -4.5361168363516E-03 -5.9100776383347E-03
   224  2.2300000000000E+00 -3.9682366143983E-03 -5.4275425426065E-03
   225  2.2400000000000E+00 -3.4410078289546E-03 -4.9637642107441E-03
   226  2.2500000000000E+00 -2.9532151410639E-03 -4.5206531866976E-03
   227  2.2600000000000E+00 -2.5036108641834E-03 -4.0997291487196E-03
   228  2.2700000000000E+00 -2.0909143955569E-03 -3.7021489032037E-03
   229  2.2800000000000E+00 -1.7138120414255E-03 -3.3287341096171E-03
   230  2.2900000000000E+00 -1.3709574439336E-03 -2.9799983035824E-03
   231  2.3000000000000E+00 -1.0609722844874E-03 -2.6561737211134E-03
   232  2.3100000000000E+00 -7.8244754128030E-04 -2.3572373559104E-03
   233  2.3200000000000E+00 -5.3394527228431E-04 -2.0829362287798E-03
   234  2.3300000000000E+00 -3.1400068158176E-04 -1.8328122633423E-03
   235  2.3400000000000E+00 -1.2112483876819E-04 -1.6062259825343E-03
   236  2.3500000000000E+00  4.6192200432326E-05 -1.4023794457743E-03
   237  2.3600000000000E+00  1.8947797910595E-04 -1.2203385866078E-03
   238  2.3700000000000E+00  3.1027355813622E-04 -1.0590541042652E-03
   239  2.3800000000000E+00  4.1012918622700E-04 -9.1738171246620E-04
   240  2.3900000000000E+00  4.9059961852959E-04 -7.9410146664222E-04
   241  2.4000000000000E+00  5.5323892740880E-04 -6.8793573407248E-04
   242  2.4100000000000E+00  5.9959512509295E-04 -5.9756646664747E-04
   243  2.4200000000000E+00  6.3120447170663E-04 -5.2165140460215E-04
   244  2.4300000000000E+00  6.4958544348419E-04 -4.5883905288277E-04
   245  2.4400000000000E+00  6.5623258016158E-04 -4.0778292847449E-04
   246  2.4500000000000E+00  6.5261010965379E-04 -3.6715469782720E-04
   247  2.4600000000000E+00  6.4014540194146E-04 -3.3565624259808E-04
   248  2.4700000000000E+00  6.2022237374330E-04 -3.1203098487013E-04
   249  2.4800000000000E+00  5.9417480984034E-04 -2.9507416234227E-04
   250  2.4900000000000E+00  5.6327967055976E-04 -2.8364218566676E-04
   251  2.5000000000000E+00  5.2875042457771E-04 -2.7666126424864E-04
   252  2.5100000000000E+00  4.9173047016464E-04 -2.7313512303500E-04
   253  2.5200000000000E+00  4.5328668194275E-04 -2.7215193917337E-04
   254  2.5300000000000E+00  4.1440306346290E-04 -2.7289058833967E-04
   255  2.5400000000000E+00  3.7597466229792E-04 -2.7462615080337E-04
   256  2.5500000000000E+00  3.3880175020309E-04 -2.7673479770091E-04
   257  2.5600000000000E+00  3.0358413048101E-04 -2.7869790314687E-04
   258  2.5700000000000E+00  2.7091594260370E-04 -2.8010578152528E-04
   259  2.5800000000000E+00  2.4143057726847E-04 -2.8097213403950E-04
   260  2.5900000000000E+00  2.1532560303243E-04 -2.8075870514690E-04
   261  2.6000000000000E+00  1.9261513761507E-04 -2.7891043883260E-04
   262  2.6100000000000E+00  1.7249930831571E-04 -2.7368008074974E-04
   263  2.6200000000000E+00  1.5604856984231E-04 -2.6735629096429E-04
   264  2.6300000000000E+00  1.4549690730858E-04 -2.6488359754334E-04
   265  2.6400000000000E+00  1.4309104581073E-04 -2.7149216654638E-04
   266  2.6500000000000E+00  1.4601901703596E-04 -2.8300256839799E-04
   267  2.6600000000000E+00  1.4258758488886E-04 -2.7845623288410E-04
   268  2.6700000000000E+00  1.2355158449354E-04 -2.4156104719230E-04
   269  2.6800000000000E+00  8.2824638134354E-05 -1.6195046356405E-04
   270  2.6900000000000E+00  3.7437531837549E-05 -7.3147341169828E-05
   271  2.7000000000000E+00 -5.9651607841260E-07  1.1696608128251E-06
   272  2.7100000000000E+00 -1.3038512785068E-05  2.5570229598930E-05
   273  2.7200000000000E+00 -1.1433603366776E-05  2.2423776459906E-05
   274  2.7300000000000E+00 -2.2016522542918E-06  4.3178272971240E-06
   275  2.7400000000000E+00  2.3882203710498E-06 -4.6931107861467E-06
   276  2.7500000000000E+00  2.9957739373919E-06 -5.8883813306529E-06
   277  2.7600000000000E+00  1.2663275636645E-06 -2.4895333559703E-06
   278  2.7700000000000E+00 -1.9465590146795E-07  3.8048207608130E-07
   279  2.7800000000000E+00 -3.7092760103776E-07  7.2502966852994E-07
   280  2.7900000000000E+00 -2.4450574157739E-07  4.7792053293838E-07
   281  2.8000000000000E+00  0.0000000000000E+00  0.0000000000000E+00
   282  2.8100000000000E+00  0.0000000000000E+00  0.0000000000000E+00
   283  2.8200000000000E+00  0.0000000000000E+00  0.0000000000000E+00
   284  2.8300000000000E+00  0.0000000000000E+00  0.0000000000000E+00
   285  2.8400000000000E+00  0.0000000000000E+00  0.0000000000000E+00
   286  2.8500000000000E+00  0.0000000000000E+00  0.0000000000000E+00
   287  2.8600000000000E+00  0.0000000000000E+00  0.0000000000000E+00
   288  2.8700000000000E+00  0.0000000000000E+00  0.0000000000000E+00
   289  2.8800000000000E+00  0.0000000000000E+00  0.0000000000000E+00
   290  2.8900000000000E+00  0.0000000000000E+00  0.0000000000000E+00
   291  2.9000000000000E+00  0.0000000000000E+00  0.0000000000000E+00
   292  2.9100000000000E+00  0.0000000000000E+00  0.0000000000000E+00
   293  2.9200000000000E+00  0.0000000000000E+00  0.0000000000000E+00
   294  2.9300000000000E+00  0.0000000000000E+00  0.0000000000000E+00
   295  2.9400000000000E+00  0.0000000000000E+00  0.0000000000000E+00
   296  2.9500000000000E+00  0.0000000000000E+00  0.0000000000000E+00
   297  2.9600000000000E+00  0.0000000000000E+00  0.0000000000000E+00
   298  2.9700000000000E+00  0.0000000000000E+00  0.0000000000000E+00
   299  2.9800000000000E+00  0.0000000000000E+00  0.0000000000000E+00
   300  2.9900000000000E+00  0.0000000000000E+00  0.0000000000000E+00
   301  3.0000000000000E+00  0.0000000000000E+00  0.0000000000000E+00
   302  3.0100000000000E+00  0.0000000000000E+00  0.0000000000000E+00
   303  3.0200000000000E+00  0.0000000000000E+00  0.0000000000000E+00
   304  3.0300000000000E+00  0.0000000000000E+00  0.0000000000000E+00
   305  3.0400000000000E+00  0.0000000000000E+00  0.0000000000000E+00
   306  3.0500000000000E+00  0.0000000000000E+00  0.0000000000000E+00
   307  3.0600000000000E+00  0.0000000000000E+00  0.0000000000000E+00
   308  3.0700000000000E+00  0.0000000000000E+00  0.0000000000000E+00
   309  3.0800000000000E+00  0.0000000000000E+00  0.0000000000000E+00
   310  3.0900000000000E+00  0.0000000000000E+00  0.0000000000000E+00
   311  3.1000000000000E+00  0.0000000000000E+00  0.0000000000000E+00
   312  3.1100000000000E+00  0.0000000000000E+00  0.0000000000000E+00
   313  3.1200000000000E+00  0.0000000000000E+00  0.0000000000000E+00
   314  3.1300000000000E+00  0.0000000000000E+00  0.0000000000000E+00
   315  3.1400000000000E+00  0.0000000000000E+00  0.0000000000000E+00
   316  3.1500000000000E+00  0.0000000000000E+00  0.0000000000000E+00
   317  3.1600000000000E+00  0.0000000000000E+00  0.0000000000000E+00
   318  3.1700000000000E+00  0.0000000000000E+00  0.0000000000000E+00
   319  3.1800000000000E+00  0.0000000000000E+00  0.0000000000000E+00
   320  3.1900000000000E+00  0.0000000000000E+00  0.0000000000000E+00
   321  3.2000000000000E+00  0.0000000000000E+00  0.0000000000000E+00
   322  3.2100000000000E+00  0.0000000000000E+00  0.0000000000000E+00
   323  3.2200000000000E+00  0.0000000000000E+00  0.0000000000000E+00
   324  3.2300000000000E+00  0.0000000000000E+00  0.0000000000000E+00
   325  3.2400000000000E+00  0.0000000000000E+00  0.0000000000000E+00
   326  3.2500000000000E+00  0.0000000000000E+00  0.0000000000000E+00
   327  3.2600000000000E+00  0.0000000000000E+00  0.0000000000000E+00
   328  3.2700000000000E+00  0.0000000000000E+00  0.0000000000000E+00
   329  3.2800000000000E+00  0.0000000000000E+00  0.0000000000000E+00
   330  3.2900000000000E+00  0.0000000000000E+00  0.0000000000000E+00
   331  3.3000000000000E+00  0.0000000000000E+00  0.0000000000000E+00
   332  3.3100000000000E+00  0.0000000000000E+00  0.0000000000000E+00
   333  3.3200000000000E+00  0.0000000000000E+00  0.0000000000000E+00
   334  3.3300000000000E+00  0.0000000000000E+00  0.0000000000000E+00
   335  3.3400000000000E+00  0.0000000000000E+00  0.0000000000000E+00
   336  3.3500000000000E+00  0.0000000000000E+00  0.0000000000000E+00
   337  3.3600000000000E+00  0.0000000000000E+00  0.0000000000000E+00
   338  3.3700000000000E+00  0.0000000000000E+00  0.0000000000000E+00
   339  3.3800000000000E+00  0.0000000000000E+00  0.0000000000000E+00
   340  3.3900000000000E+00  0.0000000000000E+00  0.0000000000000E+00
   341  3.4000000000000E+00  0.0000000000000E+00  0.0000000000000E+00
   342  3.4100000000000E+00  0.0000000000000E+00  0.0000000000000E+00
   343  3.4200000000000E+00  0.0000000000000E+00  0.0000000000000E+00
   344  3.4300000000000E+00  0.0000000000000E+00  0.0000000000000E+00
   345  3.4400000000000E+00  0.0000000000000E+00  0.0000000000000E+00
   346  3.4500000000000E+00  0.0000000000000E+00  0.0000000000000E+00
   347  3.4600000000000E+00  0.0000000000000E+00  0.0000000000000E+00
   348  3.4700000000000E+00  0.0000000000000E+00  0.0000000000000E+00
   349  3.4800000000000E+00  0.0000000000000E+00  0.0000000000000E+00
   350  3.4900000000000E+00  0.0000000000000E+00  0.0000000000000E+00
   351  3.5000000000000E+00  0.0000000000000E+00  0.0000000000000E+00
   352  3.5100000000000E+00  0.0000000000000E+00  0.0000000000000E+00
   353  3.5200000000000E+00  0.0000000000000E+00  0.0000000000000E+00
   354  3.5300000000000E+00  0.0000000000000E+00  0.0000000000000E+00
   355  3.5400000000000E+00  0.0000000000000E+00  0.0000000000000E+00
   356  3.5500000000000E+00  0.0000000000000E+00  0.0000000000000E+00
   357  3.5600000000000E+00  0.0000000000000E+00  0.0000000000000E+00
   358  3.5700000000000E+00  0.0000000000000E+00  0.0000000000000E+00
   359  3.5800000000000E+00  0.0000000000000E+00  0.0000000000000E+00
   360  3.5900000000000E+00  0.0000000000000E+00  0.0000000000000E+00
   361  3.6000000000000E+00  0.0000000000000E+00  0.0000000000000E+00
   362  3.6100000000000E+00  0.0000000000000E+00  0.0000000000000E+00
   363  3.6200000000000E+00  0.0000000000000E+00  0.0000000000000E+00
   364  3.6300000000000E+00  0.0000000000000E+00  0.0000000000000E+00
   365  3.6400000000000E+00  0.0000000000000E+00  0.0000000000000E+00
   366  3.6500000000000E+00  0.0000000000000E+00  0.0000000000000E+00
   367  3.6600000000000E+00  0.0000000000000E+00  0.0000000000000E+00
   368  3.6700000000000E+00  0.0000000000000E+00  0.0000000000000E+00
   369  3.6800000000000E+00  0.0000000000000E+00  0.0000000000000E+00
   370  3.6900000000000E+00  0.0000000000000E+00  0.0000000000000E+00
   371  3.7000000000000E+00  0.0000000000000E+00  0.0000000000000E+00
   372  3.7100000000000E+00  0.0000000000000E+00  0.0000000000000E+00
   373  3.7200000000000E+00  0.0000000000000E+00  0.0000000000000E+00
   374  3.7300000000000E+00  0.0000000000000E+00  0.0000000000000E+00
   375  3.7400000000000E+00  0.0000000000000E+00  0.0000000000000E+00
   376  3.7500000000000E+00  0.0000000000000E+00  0.0000000000000E+00
   377  3.7600000000000E+00  0.0000000000000E+00  0.0000000000000E+00
   378  3.7700000000000E+00  0.0000000000000E+00  0.0000000000000E+00
   379  3.7800000000000E+00  0.0000000000000E+00  0.0000000000000E+00
   380  3.7900000000000E+00  0.0000000000000E+00  0.0000000000000E+00
   381  3.8000000000000E+00  0.0000000000000E+00  0.0000000000000E+00
   382  3.8100000000000E+00  0.0000000000000E+00  0.0000000000000E+00
   383  3.8200000000000E+00  0.0000000000000E+00  0.0000000000000E+00
   384  3.8300000000000E+00  0.0000000000000E+00  0.0000000000000E+00
   385  3.8400000000000E+00  0.0000000000000E+00  0.0000000000000E+00
   386  3.8500000000000E+00  0.0000000000000E+00  0.0000000000000E+00
   387  3.8600000000000E+00  0.0000000000000E+00  0.0000000000000E+00
   388  3.8700000000000E+00  0.0000000000000E+00  0.0000000000000E+00
   389  3.8800000000000E+00  0.0000000000000E+00  0.0000000000000E+00
   390  3.8900000000000E+00  0.0000000000000E+00  0.0000000000000E+00
   391  3.9000000000000E+00  0.0000000000000E+00  0.0000000000000E+00
   392  3.9100000000000E+00  0.0000000000000E+00  0.0000000000000E+00
   393  3.9200000000000E+00  0.0000000000000E+00  0.0000000000000E+00
   394  3.9300000000000E+00  0.0000000000000E+00  0.0000000000000E+00
   395  3.9400000000000E+00  0.0000000000000E+00  0.0000000000000E+00
   396  3.9500000000000E+00  0.0000000000000E+00  0.0000000000000E+00
   397  3.9600000000000E+00  0.0000000000000E+00  0.0000000000000E+00
   398  3.9700000000000E+00  0.0000000000000E+00  0.0000000000000E+00
   399  3.9800000000000E+00  0.0000000000000E+00  0.0000000000000E+00
   400  3.9900000000000E+00  0.0000000000000E+00  0.0000000000000E+00
   401  4.0000000000000E+00  0.0000000000000E+00  0.0000000000000E+00
   402  4.0100000000000E+00  0.0000000000000E+00  0.0000000000000E+00
   403  4.0200000000000E+00  0.0000000000000E+00  0.0000000000000E+00
   404  4.0300000000000E+00  0.0000000000000E+00  0.0000000000000E+00
   405  4.0400000000000E+00  0.0000000000000E+00  0.0000000000000E+00
   406  4.0500000000000E+00  0.0000000000000E+00  0.0000000000000E+00
   407  4.0600000000000E+00  0.0000000000000E+00  0.0000000000000E+00
   408  4.0700000000000E+00  0.0000000000000E+00  0.0000000000000E+00
   409  4.0800000000000E+00  0.0000000000000E+00  0.0000000000000E+00
   410  4.0900000000000E+00  0.0000000000000E+00  0.0000000000000E+00
   411  4.1000000000000E+00  0.0000000000000E+00  0.0000000000000E+00
   412  4.1100000000000E+00  0.0000000000000E+00  0.0000000000000E+00
   413  4.1200000000000E+00  0.0000000000000E+00  0.0000000000000E+00
   414  4.1300000000000E+00  0.0000000000000E+00  0.0000000000000E+00
   415  4.1400000000000E+00  0.0000000000000E+00  0.0000000000000E+00
   416  4.1500000000000E+00  0.0000000000000E+00  0.0000000000000E+00
   417  4.1600000000000E+00  0.0000000000000E+00  0.0000000000000E+00
   418  4.1700000000000E+00  0.0000000000000E+00  0.0000000000000E+00
   419  4.1800000000000E+00  0.0000000000000E+00  0.0000000000000E+00
   420  4.1900000000000E+00  0.0000000000000E+00  0.0000000000000E+00
   421  4.2000000000000E+00  0.0000000000000E+00  0.0000000000000E+00
   422  4.2100000000000E+00  0.0000000000000E+00  0.0000000000000E+00