Si    ONCVPSP-3.3.1  r_core=   2.29275   3.56481
     14.0000      4.0000      190128    zatom,zion,pspd
     8       2   1     4   600     0    pspcod,pspxc,lmax,lloc,mmax,r2well
  5.99000000  0.00000000  0.00000000    rchrg fchrg qchrg
     2     2     0     0     0    nproj
     1     1           extension_switch
   0                         5.0237207928286E+00  3.7427702032224E-01
     1  0.0000000000000E+00  2.8263502649395E-13 -4.4094450313281E-12
     2  1.0000000000000E-02  2.9609322893256E-02 -1.9314684712731E-02
     3  2.0000000000000E-02  5.9205263009212E-02 -3.8607377025454E-02
     4  3.0000000000000E-02  8.8774428066857E-02 -5.7856061999673E-02
     5  4.0000000000000E-02  1.1830340682963E-01 -7.7038679868553E-02
     6  5.0000000000000E-02  1.4777875975728E-01 -9.6133104243263E-02
     7  6.0000000000000E-02  1.7718700981299E-01 -1.1511712106078E-01
     8  7.0000000000000E-02  2.0651463347738E-01 -1.3396840851512E-01
     9  8.0000000000000E-02  2.3574805202031E-01 -1.5266451820950E-01
    10  9.0000000000000E-02  2.6487362308140E-01 -1.7118285776145E-01
    11  1.0000000000000E-01  2.9387763260961E-01 -1.8950067508634E-01
    12  1.1000000000000E-01  3.2274628721171E-01 -2.0759504457708E-01
    13  1.2000000000000E-01  3.5146570695884E-01 -2.2544285538940E-01
    14  1.3000000000000E-01  3.8002191869998E-01 -2.4302080203228E-01
    15  1.4000000000000E-01  4.0840084993017E-01 -2.6030537745286E-01
    16  1.5000000000000E-01  4.3658832326074E-01 -2.7727286879362E-01
    17  1.6000000000000E-01  4.6457005153798E-01 -2.9389935598751E-01
    18  1.7000000000000E-01  4.9233163365573E-01 -3.1016071334375E-01
    19  1.8000000000000E-01  5.1985855110658E-01 -3.2603261426307E-01
    20  1.9000000000000E-01  5.4713616531531E-01 -3.4149053920692E-01
    21  2.0000000000000E-01  5.7414971579704E-01 -3.5650978703002E-01
    22  2.1000000000000E-01  6.0088431918183E-01 -3.7106548976991E-01
    23  2.2000000000000E-01  6.2732496914586E-01 -3.8513263097102E-01
    24  2.3000000000000E-01  6.5345653728840E-01 -3.9868606760403E-01
    25  2.4000000000000E-01  6.7926377499238E-01 -4.1170055562425E-01
    26  2.5000000000000E-01  7.0473131630506E-01 -4.2415077919536E-01
    27  2.6000000000000E-01  7.2984368187382E-01 -4.3601138358702E-01
    28  2.7000000000000E-01  7.5458528397044E-01 -4.4725701173693E-01
    29  2.8000000000000E-01  7.7894043263598E-01 -4.5786234444990E-01
    30  2.9000000000000E-01  8.0289334297622E-01 -4.6780214418802E-01
    31  3.0000000000000E-01  8.2642814363604E-01 -4.7705130238801E-01
    32  3.1000000000000E-01  8.4952888647917E-01 -4.8558489022331E-01
    33  3.2000000000000E-01  8.7217955749750E-01 -4.9337821271050E-01
    34  3.3000000000000E-01  8.9436408897201E-01 -5.0040686604131E-01
    35  3.4000000000000E-01  9.1606637290501E-01 -5.0664679800379E-01
    36  3.5000000000000E-01  9.3727027574081E-01 -5.1207437133856E-01
    37  3.6000000000000E-01  9.5795965438895E-01 -5.1666642985853E-01
    38  3.7000000000000E-01  9.7811837356174E-01 -5.2040036714369E-01
    39  3.8000000000000E-01  9.9773032443398E-01 -5.2325419760619E-01
    40  3.9000000000000E-01  1.0167794446299E+00 -5.2520662970391E-01
    41  4.0000000000000E-01  1.0352497395389E+00 -5.2623714106655E-01
    42  4.1000000000000E-01  1.0531253049562E+00 -5.2632605528181E-01
    43  4.2000000000000E-01  1.0703903510439E+00 -5.2545462007599E-01
    44  4.3000000000000E-01  1.0870292275987E+00 -5.2360508660851E-01
    45  4.4000000000000E-01  1.1030264506126E+00 -5.2076078958776E-01
    46  4.5000000000000E-01  1.1183667301050E+00 -5.1690622790290E-01
    47  4.6000000000000E-01  1.1330349991994E+00 -5.1202714545454E-01
    48  4.7000000000000E-01  1.1470164444155E+00 -5.0611061185748E-01
    49  4.8000000000000E-01  1.1602965371368E+00 -4.9914510267780E-01
    50  4.9000000000000E-01  1.1728610662120E+00 -4.9112057885886E-01
    51  5.0000000000000E-01  1.1846961716406E+00 -4.8202856498224E-01
    52  5.1000000000000E-01  1.1957883792851E+00 -4.7186222600345E-01
    53  5.2000000000000E-01  1.2061246365480E+00 -4.6061644209590E-01
    54  5.3000000000000E-01  1.2156923489430E+00 -4.4828788123323E-01
    55  5.4000000000000E-01  1.2244794174822E+00 -4.3487506913506E-01
    56  5.5000000000000E-01  1.2324742767954E+00 -4.2037845620067E-01
    57  5.6000000000000E-01  1.2396659338882E+00 -4.0480048105349E-01
    58  5.7000000000000E-01  1.2460440074390E+00 -3.8814563031929E-01
    59  5.8000000000000E-01  1.2515987675259E+00 -3.7042049426376E-01
    60  5.9000000000000E-01  1.2563211756689E+00 -3.5163381791712E-01
    61  6.0000000000000E-01  1.2602029250619E+00 -3.3179654731924E-01
    62  6.1000000000000E-01  1.2632364808645E+00 -3.1092187052359E-01
    63  6.2000000000000E-01  1.2654151204125E+00 -2.8902525300650E-01
    64  6.3000000000000E-01  1.2667329732012E+00 -2.6612446713789E-01
    65  6.4000000000000E-01  1.2671850604879E+00 -2.4223961537868E-01
    66  6.5000000000000E-01  1.2667673343504E+00 -2.1739314688451E-01
    67  6.6000000000000E-01  1.2654767160353E+00 -1.9160986720778E-01
    68  6.7000000000000E-01  1.2633111334212E+00 -1.6491694080649E-01
    69  6.8000000000000E-01  1.2602695574170E+00 -1.3734388608528E-01
    70  6.9000000000000E-01  1.2563520371097E+00 -1.0892256271418E-01
    71  7.0000000000000E-01  1.2515597334724E+00 -7.9687150989996E-02
    72  7.1000000000000E-01  1.2458949514384E+00 -4.9674123029604E-02
    73  7.2000000000000E-01  1.2393611701446E+00 -1.8922205607209E-02
    74  7.3000000000000E-01  1.2319630711454E+00  1.2527665524275E-02
    75  7.4000000000000E-01  1.2237065643952E+00  4.4632399961415E-02
    76  7.5000000000000E-01  1.2145988118006E+00  7.7346815729865E-02
    77  7.6000000000000E-01  1.2046482481397E+00  1.1062371118769E-01
    78  7.7000000000000E-01  1.1938645991510E+00  1.4441394578935E-01
    79  7.8000000000000E-01  1.1822588965957E+00  1.7866652971362E-01
    80  7.9000000000000E-01  1.1698434901012E+00  2.1332872232121E-01
    81  8.0000000000000E-01  1.1566320555998E+00  2.4834613936970E-01
    82  8.1000000000000E-01  1.1426396001816E+00  2.8366286887306E-01
    83  8.2000000000000E-01  1.1278824631910E+00  3.1922159545212E-01
    84  8.3000000000000E-01  1.1123783134019E+00  3.5496373297835E-01
    85  8.4000000000000E-01  1.0961461421214E+00  3.9082956527029E-01
    86  8.5000000000000E-01  1.0792062520803E+00  4.2675839455479E-01
    87  8.6000000000000E-01  1.0615802419842E+00  4.6268869736009E-01
    88  8.7000000000000E-01  1.0432909866132E+00  4.9855828745822E-01
    89  8.8000000000000E-01  1.0243626123740E+00  5.3430448542690E-01
    90  8.9000000000000E-01  1.0048204682261E+00  5.6986429435050E-01
    91  9.0000000000000E-01  9.8469109192276E-01  6.0517458112996E-01
    92  9.1000000000000E-01  9.6400217152727E-01  6.4017226282058E-01
    93  9.2000000000000E-01  9.4278250218588E-01  6.7479449736547E-01
    94  9.3000000000000E-01  9.2106193816236E-01  7.0897887804150E-01
    95  9.4000000000000E-01  8.9887134016181E-01  7.4266363088298E-01
    96  9.5000000000000E-01  8.7624251799625E-01  7.7578781429748E-01
    97  9.6000000000000E-01  8.5320816867001E-01  8.0829152003750E-01
    98  9.7000000000000E-01  8.2980180998914E-01  8.4011607464179E-01
    99  9.8000000000000E-01  8.0605770982659E-01  8.7120424041001E-01
   100  9.9000000000000E-01  7.8201081120140E-01  9.0150041492830E-01
   101  1.0000000000000E+00  7.5769665335950E-01  9.3095082811332E-01
   102  1.0100000000000E+00  7.3315128907153E-01  9.5950373569918E-01
   103  1.0200000000000E+00  7.0841119839151E-01  9.8710960804661E-01
   104  1.0300000000000E+00  6.8351319914935E-01  1.0137213131118E+00
   105  1.0400000000000E+00  6.5849435447863E-01  1.0392942923724E+00
   106  1.0500000000000E+00  6.3339187770925E-01  1.0637867284698E+00
   107  1.0600000000000E+00  6.0824303498209E-01  1.0871597032949E+00
   108  1.0700000000000E+00  5.8308504597148E-01  1.1093773452058E+00
   109  1.0800000000000E+00  5.5795498312652E-01  1.1304069640425E+00
   110  1.0900000000000E+00  5.3288966986922E-01  1.1502191725740E+00
   111  1.1000000000000E+00  5.0792557821109E-01  1.1687879929907E+00
   112  1.1100000000000E+00  4.8309872627347E-01  1.1860909470356E+00
   113  1.1200000000000E+00  4.5844457622031E-01  1.2021091283508E+00
   114  1.1300000000000E+00  4.3399793313153E-01  1.2168272556042E+00
   115  1.1400000000000E+00  4.0979284536472E-01  1.2302337049531E+00
   116  1.1500000000000E+00  3.8586250696857E-01  1.2423205203957E+00
   117  1.1600000000000E+00  3.6223916272983E-01  1.2530834005613E+00
   118  1.1700000000000E+00  3.3895401644676E-01  1.2625216604962E+00
   119  1.1800000000000E+00  3.1603714303266E-01  1.2706381670067E+00
   120  1.1900000000000E+00  2.9351740506329E-01  1.2774392461339E+00
   121  1.2000000000000E+00  2.7142237438884E-01  1.2829345613525E+00
   122  1.2100000000000E+00  2.4977825943310E-01  1.2871369611120E+00
   123  1.2200000000000E+00  2.2860983880626E-01  1.2900622943462E+00
   124  1.2300000000000E+00  2.0794040185652E-01  1.2917291926274E+00
   125  1.2400000000000E+00  1.8779169677991E-01  1.2921588176677E+00
   126  1.2500000000000E+00  1.6818388690481E-01  1.2913745728983E+00
   127  1.2600000000000E+00  1.4913551575910E-01  1.2894017779066E+00
   128  1.2700000000000E+00  1.3066348151025E-01  1.2862673045684E+00
   129  1.2800000000000E+00  1.1278302136318E-01  1.2819991737386E+00
   130  1.2900000000000E+00  9.5507706483743E-02  1.2766261114189E+00
   131  1.3000000000000E+00  7.8849447902124E-02  1.2701770602563E+00
   132  1.3100000000000E+00  6.2818514456454E-02  1.2626806622554E+00
   133  1.3200000000000E+00  4.7423561757107E-02  1.2541646637610E+00
   134  1.3300000000000E+00  3.2671677641739E-02  1.2446554509064E+00
   135  1.3400000000000E+00  1.8568425179460E-02  1.2341768517936E+00
   136  1.3500000000000E+00  5.1179361960533E-03  1.2227504562905E+00
   137  1.3600000000000E+00 -7.6769541144131E-03  1.2103969963766E+00
   138  1.3700000000000E+00 -1.9814641020023E-02  1.1971380996603E+00
   139  1.3800000000000E+00 -3.1294711484401E-02  1.1829974645908E+00
   140  1.3900000000000E+00 -4.2117972772237E-02  1.1680003406674E+00
   141  1.4000000000000E+00 -5.2286453595853E-02  1.1521735914322E+00
   142  1.4100000000000E+00 -6.1803403554461E-02  1.1355456648933E+00
   143  1.4200000000000E+00 -7.0673289493967E-02  1.1181465620318E+00
   144  1.4300000000000E+00 -7.8901788167204E-02  1.1000077860614E+00
   145  1.4400000000000E+00 -8.6495774655908E-02  1.0811622880504E+00
   146  1.4500000000000E+00 -9.3463306605723E-02  1.0616444052278E+00
   147  1.4600000000000E+00 -9.9813604295670E-02  1.0414897922678E+00
   148  1.4700000000000E+00 -1.0555702642074E-01  1.0207353456200E+00
   149  1.4800000000000E+00 -1.1070504169676E-01  9.9941912132747E-01
   150  1.4900000000000E+00 -1.1527019624842E-01  9.7758024653161E-01
   151  1.5000000000000E+00 -1.1926607687613E-01  9.5525882508751E-01
   152  1.5100000000000E+00 -1.2270727030871E-01  9.3249583769135E-01
   153  1.5200000000000E+00 -1.2560931849727E-01  9.0933303688878E-01
   154  1.5300000000000E+00 -1.2798867019961E-01  8.8581283752509E-01
   155  1.5400000000000E+00 -1.2986262888903E-01  8.6197820299571E-01
   156  1.5500000000000E+00 -1.3124929732224E-01  8.3787252792973E-01
   157  1.5600000000000E+00 -1.3216751885314E-01  8.1353951772172E-01
   158  1.5700000000000E+00 -1.3263681582922E-01  7.8902306553456E-01
   159  1.5800000000000E+00 -1.3267732525303E-01  7.6436712726859E-01
   160  1.5900000000000E+00 -1.3230973202540E-01  7.3961559509754E-01
   161  1.6000000000000E+00 -1.3155520003793E-01  7.1481217011530E-01
   162  1.6100000000000E+00 -1.3043530141803E-01  6.9000023468778E-01
   163  1.6200000000000E+00 -1.2897194425406E-01  6.6522272506220E-01
   164  1.6300000000000E+00 -1.2718729910355E-01  6.4052200484070E-01
   165  1.6400000000000E+00 -1.2510372464266E-01  6.1593973984000E-01
   166  1.6500000000000E+00 -1.2274369277477E-01  5.9151677497301E-01
   167  1.6600000000000E+00 -1.2012971355672E-01  5.6729301360874E-01
   168  1.6700000000000E+00 -1.1728426028917E-01  5.4330730008801E-01
   169  1.6800000000000E+00 -1.1422969510247E-01  5.1959730575718E-01
   170  1.6900000000000E+00 -1.1098819542294E-01  4.9619941924442E-01
   171  1.7000000000000E+00 -1.0758168160083E-01  4.7314864122718E-01
   172  1.7100000000000E+00 -1.0403174612809E-01  4.5047848445878E-01
   173  1.7200000000000E+00 -1.0035958466065E-01  4.2822087918098E-01
   174  1.7300000000000E+00 -9.6585929313449E-02  4.0640608471843E-01
   175  1.7400000000000E+00 -9.2730984370322E-02  3.8506260726695E-01
   176  1.7500000000000E+00 -8.8814364902525E-02  3.6421712466802E-01
   177  1.7600000000000E+00 -8.4855038373341E-02  3.4389441809310E-01
   178  1.7700000000000E+00 -8.0871269718523E-02  3.2411731137491E-01
   179  1.7800000000000E+00 -7.6880569941641E-02  3.0490661787194E-01
   180  1.7900000000000E+00 -7.2899648661407E-02  2.8628109547173E-01
   181  1.8000000000000E+00 -6.8944370659513E-02  2.6825740966023E-01
   182  1.8100000000000E+00 -6.5029716744230E-02  2.5085010502975E-01
   183  1.8200000000000E+00 -6.1169749057294E-02  2.3407158529828E-01
   184  1.8300000000000E+00 -5.7377580929906E-02  2.1793210185783E-01
   185  1.8400000000000E+00 -5.3665351580731E-02  2.0243975119125E-01
   186  1.8500000000000E+00 -5.0044205455192E-02  1.8760048069309E-01
   187  1.8600000000000E+00 -4.6524276754320E-02  1.7341810361777E-01
   188  1.8700000000000E+00 -4.3114678566901E-02  1.5989432211728E-01
   189  1.8800000000000E+00 -3.9823497412456E-02  1.4702875945771E-01
   190  1.8900000000000E+00 -3.6657792374686E-02  1.3481900005492E-01
   191  1.9000000000000E+00 -3.3623599557714E-02  1.2326063827411E-01
   192  1.9100000000000E+00 -3.0725941221011E-02  1.1234733492373E-01
   193  1.9200000000000E+00 -2.7968839894757E-02  1.0207088173733E-01
   194  1.9300000000000E+00 -2.5355337263624E-02  9.2421273409764E-02
   195  1.9400000000000E+00 -2.2887517519966E-02  8.3386786625497E-02
   196  1.9500000000000E+00 -2.0566535511354E-02  7.4954066388143E-02
   197  1.9600000000000E+00 -1.8392648770316E-02  6.7108218262730E-02
   198  1.9700000000000E+00 -1.6365254134456E-02  5.9832907334194E-02
   199  1.9800000000000E+00 -1.4482927880047E-02  5.3110462302321E-02
   200  1.9900000000000E+00 -1.2743469762575E-02  4.6921985068178E-02
   201  2.0000000000000E+00 -1.1143950416956E-02  4.1247464950837E-02
   202  2.0100000000000E+00 -9.6807617964745E-03  3.6065896959674E-02
   203  2.0200000000000E+00 -8.3496707072430E-03  3.1355404013304E-02
   204  2.0300000000000E+00 -7.1458745964673E-03  2.7093361921698E-02
   205  2.0400000000000E+00 -6.0640598647279E-03  2.3256527228862E-02
   206  2.0500000000000E+00 -5.0984619111868E-03  1.9821166843621E-02
   207  2.0600000000000E+00 -4.2429268060461E-03  1.6763189100865E-02
   208  2.0700000000000E+00 -3.4909742450103E-03  1.4058275655626E-02
   209  2.0800000000000E+00 -2.8358612973906E-03  1.1682013538137E-02
   210  2.0900000000000E+00 -2.2706467489210E-03  9.6100267741187E-03
   211  2.1000000000000E+00 -1.7882556019722E-03  7.8181070988905E-03
   212  2.1100000000000E+00 -1.3815433618237E-03  6.2823429717469E-03
   213  2.1200000000000E+00 -1.0433597652909E-03  4.9792463668582E-03
   214  2.1300000000000E+00 -7.6661173565581E-04  3.8858770675339E-03
   215  2.1400000000000E+00 -5.4432484921889E-04  2.9799631298387E-03
   216  2.1500000000000E+00 -3.6970348428769E-04  2.2400179671779E-03
   217  2.1600000000000E+00 -2.3618889182982E-04  1.6454527120989E-03
   218  2.1700000000000E+00 -1.3751490475362E-04  1.1766834171509E-03
   219  2.1800000000000E+00 -6.7761574123227E-05  8.1523362563225E-04
   220  2.1900000000000E+00 -2.1405269382646E-05  5.4382985376930E-04
   221  2.2000000000000E+00  6.6338009312815E-06  3.4649161870803E-04
   222  2.2100000000000E+00  2.0947569260529E-05  2.0861449350022E-04
   223  2.2200000000000E+00  2.5595081217057E-05  1.1705320683791E-04
   224  2.2300000000000E+00  2.4084800097599E-05  6.0160598725329E-05
   225  2.2400000000000E+00  1.9311307828657E-05  2.7895343171165E-05
   226  2.2500000000000E+00  1.3499228314635E-05  1.1916152974648E-05
   227  2.2600000000000E+00  8.4189476825767E-06  5.2689753316282E-06
   228  2.2700000000000E+00  5.1990742291644E-06  2.7175212774697E-06
   229  2.2800000000000E+00  3.8760854495779E-06  1.2902670188159E-06
   230  2.2900000000000E+00  3.4210752496319E-06  2.3093640335614E-07
   231  2.3000000000000E+00  2.5227234658948E-06 -1.6749042233708E-07
   232  2.3100000000000E+00  1.2263234479607E-06 -1.4983523596935E-07
   233  2.3200000000000E+00  2.6627226697462E-08 -4.2504278471250E-09
   234  2.3300000000000E+00 -3.1298010119866E-07  1.3022576196592E-08
   235  2.3400000000000E+00 -2.1782055892768E-07  7.4532350177964E-09
   236  2.3500000000000E+00  1.8675831533061E-08 -2.6670214024726E-09
   237  2.3600000000000E+00  7.0562491842714E-08 -1.0690513767141E-08
   238  2.3700000000000E+00  4.1670638832630E-08 -6.6127141740477E-09
   239  2.3800000000000E+00 -4.2667877414239E-09  1.8740456730894E-11
   240  2.3900000000000E+00 -9.4031022859461E-09  4.1300022922430E-11
   241  2.4000000000000E+00 -4.4856380438069E-09  1.9701684443849E-11
   242  2.4100000000000E+00  0.0000000000000E+00  0.0000000000000E+00
   243  2.4200000000000E+00  0.0000000000000E+00  0.0000000000000E+00
   244  2.4300000000000E+00  0.0000000000000E+00  0.0000000000000E+00
   245  2.4400000000000E+00  0.0000000000000E+00  0.0000000000000E+00
   246  2.4500000000000E+00  0.0000000000000E+00  0.0000000000000E+00
   247  2.4600000000000E+00  0.0000000000000E+00  0.0000000000000E+00
   248  2.4700000000000E+00  0.0000000000000E+00  0.0000000000000E+00
   249  2.4800000000000E+00  0.0000000000000E+00  0.0000000000000E+00
   250  2.4900000000000E+00  0.0000000000000E+00  0.0000000000000E+00
   251  2.5000000000000E+00  0.0000000000000E+00  0.0000000000000E+00
   252  2.5100000000000E+00  0.0000000000000E+00  0.0000000000000E+00
   253  2.5200000000000E+00  0.0000000000000E+00  0.0000000000000E+00
   254  2.5300000000000E+00  0.0000000000000E+00  0.0000000000000E+00
   255  2.5400000000000E+00  0.0000000000000E+00  0.0000000000000E+00
   256  2.5500000000000E+00  0.0000000000000E+00  0.0000000000000E+00
   257  2.5600000000000E+00  0.0000000000000E+00  0.0000000000000E+00
   258  2.5700000000000E+00  0.0000000000000E+00  0.0000000000000E+00
   259  2.5800000000000E+00  0.0000000000000E+00  0.0000000000000E+00
   260  2.5900000000000E+00  0.0000000000000E+00  0.0000000000000E+00
   261  2.6000000000000E+00  0.0000000000000E+00  0.0000000000000E+00
   262  2.6100000000000E+00  0.0000000000000E+00  0.0000000000000E+00
   263  2.6200000000000E+00  0.0000000000000E+00  0.0000000000000E+00
   264  2.6300000000000E+00  0.0000000000000E+00  0.0000000000000E+00
   265  2.6400000000000E+00  0.0000000000000E+00  0.0000000000000E+00
   266  2.6500000000000E+00  0.0000000000000E+00  0.0000000000000E+00
   267  2.6600000000000E+00  0.0000000000000E+00  0.0000000000000E+00
   268  2.6700000000000E+00  0.0000000000000E+00  0.0000000000000E+00
   269  2.6800000000000E+00  0.0000000000000E+00  0.0000000000000E+00
   270  2.6900000000000E+00  0.0000000000000E+00  0.0000000000000E+00
   271  2.7000000000000E+00  0.0000000000000E+00  0.0000000000000E+00
   272  2.7100000000000E+00  0.0000000000000E+00  0.0000000000000E+00
   273  2.7200000000000E+00  0.0000000000000E+00  0.0000000000000E+00
   274  2.7300000000000E+00  0.0000000000000E+00  0.0000000000000E+00
   275  2.7400000000000E+00  0.0000000000000E+00  0.0000000000000E+00
   276  2.7500000000000E+00  0.0000000000000E+00  0.0000000000000E+00
   277  2.7600000000000E+00  0.0000000000000E+00  0.0000000000000E+00
   278  2.7700000000000E+00  0.0000000000000E+00  0.0000000000000E+00
   279  2.7800000000000E+00  0.0000000000000E+00  0.0000000000000E+00
   280  2.7900000000000E+00  0.0000000000000E+00  0.0000000000000E+00
   281  2.8000000000000E+00  0.0000000000000E+00  0.0000000000000E+00
   282  2.8100000000000E+00  0.0000000000000E+00  0.0000000000000E+00
   283  2.8200000000000E+00  0.0000000000000E+00  0.0000000000000E+00
   284  2.8300000000000E+00  0.0000000000000E+00  0.0000000000000E+00
   285  2.8400000000000E+00  0.0000000000000E+00  0.0000000000000E+00
   286  2.8500000000000E+00  0.0000000000000E+00  0.0000000000000E+00
   287  2.8600000000000E+00  0.0000000000000E+00  0.0000000000000E+00
   288  2.8700000000000E+00  0.0000000000000E+00  0.0000000000000E+00
   289  2.8800000000000E+00  0.0000000000000E+00  0.0000000000000E+00
   290  2.8900000000000E+00  0.0000000000000E+00  0.0000000000000E+00
   291  2.9000000000000E+00  0.0000000000000E+00  0.0000000000000E+00
   292  2.9100000000000E+00  0.0000000000000E+00  0.0000000000000E+00
   293  2.9200000000000E+00  0.0000000000000E+00  0.0000000000000E+00
   294  2.9300000000000E+00  0.0000000000000E+00  0.0000000000000E+00
   295  2.9400000000000E+00  0.0000000000000E+00  0.0000000000000E+00
   296  2.9500000000000E+00  0.0000000000000E+00  0.0000000000000E+00
   297  2.9600000000000E+00  0.0000000000000E+00  0.0000000000000E+00
   298  2.9700000000000E+00  0.0000000000000E+00  0.0000000000000E+00
   299  2.9800000000000E+00  0.0000000000000E+00  0.0000000000000E+00
   300  2.9900000000000E+00  0.0000000000000E+00  0.0000000000000E+00
   301  3.0000000000000E+00  0.0000000000000E+00  0.0000000000000E+00
   302  3.0100000000000E+00  0.0000000000000E+00  0.0000000000000E+00
   303  3.0200000000000E+00  0.0000000000000E+00  0.0000000000000E+00
   304  3.0300000000000E+00  0.0000000000000E+00  0.0000000000000E+00
   305  3.0400000000000E+00  0.0000000000000E+00  0.0000000000000E+00
   306  3.0500000000000E+00  0.0000000000000E+00  0.0000000000000E+00
   307  3.0600000000000E+00  0.0000000000000E+00  0.0000000000000E+00
   308  3.0700000000000E+00  0.0000000000000E+00  0.0000000000000E+00
   309  3.0800000000000E+00  0.0000000000000E+00  0.0000000000000E+00
   310  3.0900000000000E+00  0.0000000000000E+00  0.0000000000000E+00
   311  3.1000000000000E+00  0.0000000000000E+00  0.0000000000000E+00
   312  3.1100000000000E+00  0.0000000000000E+00  0.0000000000000E+00
   313  3.1200000000000E+00  0.0000000000000E+00  0.0000000000000E+00
   314  3.1300000000000E+00  0.0000000000000E+00  0.0000000000000E+00
   315  3.1400000000000E+00  0.0000000000000E+00  0.0000000000000E+00
   316  3.1500000000000E+00  0.0000000000000E+00  0.0000000000000E+00
   317  3.1600000000000E+00  0.0000000000000E+00  0.0000000000000E+00
   318  3.1700000000000E+00  0.0000000000000E+00  0.0000000000000E+00
   319  3.1800000000000E+00  0.0000000000000E+00  0.0000000000000E+00
   320  3.1900000000000E+00  0.0000000000000E+00  0.0000000000000E+00
   321  3.2000000000000E+00  0.0000000000000E+00  0.0000000000000E+00
   322  3.2100000000000E+00  0.0000000000000E+00  0.0000000000000E+00
   323  3.2200000000000E+00  0.0000000000000E+00  0.0000000000000E+00
   324  3.2300000000000E+00  0.0000000000000E+00  0.0000000000000E+00
   325  3.2400000000000E+00  0.0000000000000E+00  0.0000000000000E+00
   326  3.2500000000000E+00  0.0000000000000E+00  0.0000000000000E+00
   327  3.2600000000000E+00  0.0000000000000E+00  0.0000000000000E+00
   328  3.2700000000000E+00  0.0000000000000E+00  0.0000000000000E+00
   329  3.2800000000000E+00  0.0000000000000E+00  0.0000000000000E+00
   330  3.2900000000000E+00  0.0000000000000E+00  0.0000000000000E+00
   331  3.3000000000000E+00  0.0000000000000E+00  0.0000000000000E+00
   332  3.3100000000000E+00  0.0000000000000E+00  0.0000000000000E+00
   333  3.3200000000000E+00  0.0000000000000E+00  0.0000000000000E+00
   334  3.3300000000000E+00  0.0000000000000E+00  0.0000000000000E+00
   335  3.3400000000000E+00  0.0000000000000E+00  0.0000000000000E+00
   336  3.3500000000000E+00  0.0000000000000E+00  0.0000000000000E+00
   337  3.3600000000000E+00  0.0000000000000E+00  0.0000000000000E+00
   338  3.3700000000000E+00  0.0000000000000E+00  0.0000000000000E+00
   339  3.3800000000000E+00  0.0000000000000E+00  0.0000000000000E+00
   340  3.3900000000000E+00  0.0000000000000E+00  0.0000000000000E+00
   341  3.4000000000000E+00  0.0000000000000E+00  0.0000000000000E+00
   342  3.4100000000000E+00  0.0000000000000E+00  0.0000000000000E+00
   343  3.4200000000000E+00  0.0000000000000E+00  0.0000000000000E+00
   344  3.4300000000000E+00  0.0000000000000E+00  0.0000000000000E+00
   345  3.4400000000000E+00  0.0000000000000E+00  0.0000000000000E+00
   346  3.4500000000000E+00  0.0000000000000E+00  0.0000000000000E+00
   347  3.4600000000000E+00  0.0000000000000E+00  0.0000000000000E+00
   348  3.4700000000000E+00  0.0000000000000E+00  0.0000000000000E+00
   349  3.4800000000000E+00  0.0000000000000E+00  0.0000000000000E+00
   350  3.4900000000000E+00  0.0000000000000E+00  0.0000000000000E+00
   351  3.5000000000000E+00  0.0000000000000E+00  0.0000000000000E+00
   352  3.5100000000000E+00  0.0000000000000E+00  0.0000000000000E+00
   353  3.5200000000000E+00  0.0000000000000E+00  0.0000000000000E+00
   354  3.5300000000000E+00  0.0000000000000E+00  0.0000000000000E+00
   355  3.5400000000000E+00  0.0000000000000E+00  0.0000000000000E+00
   356  3.5500000000000E+00  0.0000000000000E+00  0.0000000000000E+00
   357  3.5600000000000E+00  0.0000000000000E+00  0.0000000000000E+00
   358  3.5700000000000E+00  0.0000000000000E+00  0.0000000000000E+00
   359  3.5800000000000E+00  0.0000000000000E+00  0.0000000000000E+00
   360  3.5900000000000E+00  0.0000000000000E+00  0.0000000000000E+00
   361  3.6000000000000E+00  0.0000000000000E+00  0.0000000000000E+00
   362  3.6100000000000E+00  0.0000000000000E+00  0.0000000000000E+00
   363  3.6200000000000E+00  0.0000000000000E+00  0.0000000000000E+00
   364  3.6300000000000E+00  0.0000000000000E+00  0.0000000000000E+00
   365  3.6400000000000E+00  0.0000000000000E+00  0.0000000000000E+00
   366  3.6500000000000E+00  0.0000000000000E+00  0.0000000000000E+00
   367  3.6600000000000E+00  0.0000000000000E+00  0.0000000000000E+00
   368  3.6700000000000E+00  0.0000000000000E+00  0.0000000000000E+00
   369  3.6800000000000E+00  0.0000000000000E+00  0.0000000000000E+00
   370  3.6900000000000E+00  0.0000000000000E+00  0.0000000000000E+00
   371  3.7000000000000E+00  0.0000000000000E+00  0.0000000000000E+00
   372  3.7100000000000E+00  0.0000000000000E+00  0.0000000000000E+00
   373  3.7200000000000E+00  0.0000000000000E+00  0.0000000000000E+00
   374  3.7300000000000E+00  0.0000000000000E+00  0.0000000000000E+00
   375  3.7400000000000E+00  0.0000000000000E+00  0.0000000000000E+00
   376  3.7500000000000E+00  0.0000000000000E+00  0.0000000000000E+00
   377  3.7600000000000E+00  0.0000000000000E+00  0.0000000000000E+00
   378  3.7700000000000E+00  0.0000000000000E+00  0.0000000000000E+00
   379  3.7800000000000E+00  0.0000000000000E+00  0.0000000000000E+00
   380  3.7900000000000E+00  0.0000000000000E+00  0.0000000000000E+00
   381  3.8000000000000E+00  0.0000000000000E+00  0.0000000000000E+00
   382  3.8100000000000E+00  0.0000000000000E+00  0.0000000000000E+00
   383  3.8200000000000E+00  0.0000000000000E+00  0.0000000000000E+00
   384  3.8300000000000E+00  0.0000000000000E+00  0.0000000000000E+00
   385  3.8400000000000E+00  0.0000000000000E+00  0.0000000000000E+00
   386  3.8500000000000E+00  0.0000000000000E+00  0.0000000000000E+00
   387  3.8600000000000E+00  0.0000000000000E+00  0.0000000000000E+00
   388  3.8700000000000E+00  0.0000000000000E+00  0.0000000000000E+00
   389  3.8800000000000E+00  0.0000000000000E+00  0.0000000000000E+00
   390  3.8900000000000E+00  0.0000000000000E+00  0.0000000000000E+00
   391  3.9000000000000E+00  0.0000000000000E+00  0.0000000000000E+00
   392  3.9100000000000E+00  0.0000000000000E+00  0.0000000000000E+00
   393  3.9200000000000E+00  0.0000000000000E+00  0.0000000000000E+00
   394  3.9300000000000E+00  0.0000000000000E+00  0.0000000000000E+00
   395  3.9400000000000E+00  0.0000000000000E+00  0.0000000000000E+00
   396  3.9500000000000E+00  0.0000000000000E+00  0.0000000000000E+00
   397  3.9600000000000E+00  0.0000000000000E+00  0.0000000000000E+00
   398  3.9700000000000E+00  0.0000000000000E+00  0.0000000000000E+00
   399  3.9800000000000E+00  0.0000000000000E+00  0.0000000000000E+00
   400  3.9900000000000E+00  0.0000000000000E+00  0.0000000000000E+00
   401  4.0000000000000E+00  0.0000000000000E+00  0.0000000000000E+00
   402  4.0100000000000E+00  0.0000000000000E+00  0.0000000000000E+00
   403  4.0200000000000E+00  0.0000000000000E+00  0.0000000000000E+00
   404  4.0300000000000E+00  0.0000000000000E+00  0.0000000000000E+00
   405  4.0400000000000E+00  0.0000000000000E+00  0.0000000000000E+00
   406  4.0500000000000E+00  0.0000000000000E+00  0.0000000000000E+00
   407  4.0600000000000E+00  0.0000000000000E+00  0.0000000000000E+00
   408  4.0700000000000E+00  0.0000000000000E+00  0.0000000000000E+00
   409  4.0800000000000E+00  0.0000000000000E+00  0.0000000000000E+00
   410  4.0900000000000E+00  0.0000000000000E+00  0.0000000000000E+00
   411  4.1000000000000E+00  0.0000000000000E+00  0.0000000000000E+00
   412  4.1100000000000E+00  0.0000000000000E+00  0.0000000000000E+00
   413  4.1200000000000E+00  0.0000000000000E+00  0.0000000000000E+00
   414  4.1300000000000E+00  0.0000000000000E+00  0.0000000000000E+00
   415  4.1400000000000E+00  0.0000000000000E+00  0.0000000000000E+00
   416  4.1500000000000E+00  0.0000000000000E+00  0.0000000000000E+00
   417  4.1600000000000E+00  0.0000000000000E+00  0.0000000000000E+00
   418  4.1700000000000E+00  0.0000000000000E+00  0.0000000000000E+00
   419  4.1800000000000E+00  0.0000000000000E+00  0.0000000000000E+00
   420  4.1900000000000E+00  0.0000000000000E+00  0.0000000000000E+00
   421  4.2000000000000E+00  0.0000000000000E+00  0.0000000000000E+00
   422  4.2100000000000E+00  0.0000000000000E+00  0.0000000000000E+00
   423  4.2200000000000E+00  0.0000000000000E+00  0.0000000000000E+00